  -30.00000        9.7844703E-19
  -29.85750        9.8019982E-19
  -29.71500        9.8339822E-19
  -29.57250        9.8751437E-19
  -29.43000        9.9190670E-19
  -29.28750        9.9594883E-19
  -29.14500        9.9914960E-19
  -29.00250        1.0012397E-18
  -28.86000        1.0022159E-18
  -28.71750        1.0023273E-18
  -28.57500        1.0020217E-18
  -28.43250        1.0018475E-18
  -28.29000        1.0023454E-18
  -28.14750        1.0039345E-18
  -28.00500        1.0068207E-18
  -27.86250        1.0109462E-18
  -27.72000        1.0159929E-18
  -27.57750        1.0214391E-18
  -27.43500        1.0266646E-18
  -27.29250        1.0310771E-18
  -27.15000        1.0342383E-18
  -27.00750        1.0359514E-18
  -26.86500        1.0363027E-18
  -26.72250        1.0356387E-18
  -26.58000        1.0344931E-18
  -26.43750        1.0334795E-18
  -26.29500        1.0331685E-18
  -26.15250        1.0339826E-18
  -26.01000        1.0361165E-18
  -25.86750        1.0395028E-18
  -25.72500        1.0438277E-18
  -25.58250        1.0485897E-18
  -25.44000        1.0531992E-18
  -25.29750        1.0570964E-18
  -25.15500        1.0598646E-18
  -25.01250        1.0613192E-18
  -24.87000        1.0615498E-18
  -24.72750        1.0608997E-18
  -24.58500        1.0598947E-18
  -24.44250        1.0591289E-18
  -24.30000        1.0591399E-18
  -24.15750        1.0602965E-18
  -24.01500        1.0627278E-18
  -23.87250        1.0662986E-18
  -23.73000        1.0706452E-18
  -23.58750        1.0752504E-18
  -23.44500        1.0795462E-18
  -23.30250        1.0830260E-18
  -23.16000        1.0853416E-18
  -23.01750        1.0863766E-18
  -22.87500        1.0862675E-18
  -22.73250        1.0853856E-18
  -22.59000        1.0842594E-18
  -22.44750        1.0834696E-18
  -22.30500        1.0835265E-18
  -22.16250        1.0847581E-18
  -22.02000        1.0872425E-18
  -21.87750        1.0907891E-18
  -21.73500        1.0949822E-18
  -21.59250        1.0992713E-18
  -21.45000        1.1030902E-18
  -21.30750        1.1059745E-18
  -21.16500        1.1076537E-18
  -21.02250        1.1081057E-18
  -20.88000        1.1075595E-18
  -20.73750        1.1064483E-18
  -20.59500        1.1053275E-18
  -20.45250        1.1047660E-18
  -20.31000        1.1052327E-18
  -20.16750        1.1070003E-18
  -20.02500        1.1100830E-18
  -19.88250        1.1142273E-18
  -19.74000        1.1189608E-18
  -19.59750        1.1236876E-18
  -19.45500        1.1278145E-18
  -19.31250        1.1308795E-18
  -19.17000        1.1326525E-18
  -19.02750        1.1331829E-18
  -18.88500        1.1327909E-18
  -18.74250        1.1320004E-18
  -18.60000        1.1314298E-18
  -18.45750        1.1316701E-18
  -18.31500        1.1331667E-18
  -18.17250        1.1361290E-18
  -18.03000        1.1404869E-18
  -17.88750        1.1458941E-18
  -17.74500        1.1517850E-18
  -17.60250        1.1574734E-18
  -17.46000        1.1622801E-18
  -17.31750        1.1656623E-18
  -17.17500        1.1673234E-18
  -17.03250        1.1672745E-18
  -16.89000        1.1658341E-18
  -16.74750        1.1635653E-18
  -16.60500        1.1611621E-18
  -16.46250        1.1593127E-18
  -16.32000        1.1585644E-18
  -16.17750        1.1592255E-18
  -16.03500        1.1613154E-18
  -15.89250        1.1645739E-18
  -15.75000        1.1685217E-18
  -15.60750        1.1725587E-18
  -15.46500        1.1760794E-18
  -15.32250        1.1785907E-18
  -15.18000        1.1798055E-18
  -15.03750        1.1796962E-18
  -14.89500        1.1785000E-18
  -14.75250        1.1766690E-18
  -14.61000        1.1747757E-18
  -14.46750        1.1733872E-18
  -14.32500        1.1729446E-18
  -14.18250        1.1736629E-18
  -14.04000        1.1754854E-18
  -13.89750        1.1780964E-18
  -13.75500        1.1809921E-18
  -13.61250        1.1835869E-18
  -13.47000        1.1853390E-18
  -13.32750        1.1858635E-18
  -13.18500        1.1850097E-18
  -13.04250        1.1828969E-18
  -12.90000        1.1798968E-18
  -12.75750        1.1765697E-18
  -12.61500        1.1735651E-18
  -12.47250        1.1715028E-18
  -12.33000        1.1708568E-18
  -12.18750        1.1718647E-18
  -12.04500        1.1744757E-18
  -11.90250        1.1783619E-18
  -11.76000        1.1829832E-18
  -11.61750        1.1876951E-18
  -11.47500        1.1918797E-18
  -11.33250        1.1950664E-18
  -11.19000        1.1970190E-18
  -11.04750        1.1977707E-18
  -10.90500        1.1976031E-18
  -10.76250        1.1969752E-18
  -10.62000        1.1964251E-18
  -10.47750        1.1964564E-18
  -10.33500        1.1974360E-18
  -10.19250        1.1995192E-18
  -10.05000        1.2026151E-18
  -9.907500        1.2063992E-18
  -9.765000        1.2103711E-18
  -9.622500        1.2139529E-18
  -9.480000        1.2166030E-18
  -9.337500        1.2179289E-18
  -9.195000        1.2177684E-18
  -9.052500        1.2162265E-18
  -8.910000        1.2136488E-18
  -8.767500        1.2105503E-18
  -8.625000        1.2075074E-18
  -8.482500        1.2050433E-18
  -8.340000        1.2035282E-18
  -8.197500        1.2031181E-18
  -8.055000        1.2037355E-18
  -7.912500        1.2050985E-18
  -7.770000        1.2067873E-18
  -7.627500        1.2083341E-18
  -7.485000        1.2093194E-18
  -7.342500        1.2094625E-18
  -7.200000        1.2086838E-18
  -7.057500        1.2071279E-18
  -6.915000        1.2051423E-18
  -6.772500        1.2032047E-18
  -6.630000        1.2018259E-18
  -6.487500        1.2014359E-18
  -6.345000        1.2022860E-18
  -6.202500        1.2043944E-18
  -6.060000        1.2075404E-18
  -5.917500        1.2113107E-18
  -5.775000        1.2151873E-18
  -5.632500        1.2186552E-18
  -5.490000        1.2213020E-18
  -5.347500        1.2228973E-18
  -5.205000        1.2234323E-18
  -5.062500        1.2231180E-18
  -4.920000        1.2223424E-18
  -4.777500        1.2215917E-18
  -4.635000        1.2213539E-18
  -4.492500        1.2220146E-18
  -4.350000        1.2237702E-18
  -4.207500        1.2265734E-18
  -4.065000        1.2301320E-18
  -3.922500        1.2339570E-18
  -3.780000        1.2374597E-18
  -3.637500        1.2400716E-18
  -3.495000        1.2413643E-18
  -3.352500        1.2411388E-18
  -3.210000        1.2394669E-18
  -3.067500        1.2366783E-18
  -2.925000        1.2332973E-18
  -2.782500        1.2299434E-18
  -2.640000        1.2272183E-18
  -2.497500        1.2255976E-18
  -2.355000        1.2253498E-18
  -2.212500        1.2264908E-18
  -2.070000        1.2287853E-18
  -1.927500        1.2317956E-18
  -1.785000        1.2349707E-18
  -1.642500        1.2377605E-18
  -1.500000        1.2397318E-18
  -1.357500        1.2406602E-18
  -1.215000        1.2405803E-18
  -1.072500        1.2397741E-18
 -0.9300000        1.2387076E-18
 -0.7875000        1.2379261E-18
 -0.6450000        1.2379324E-18
 -0.5025000        1.2390764E-18
 -0.3600000        1.2414800E-18
 -0.2175000        1.2450085E-18
 -7.5000003E-02    1.2492926E-18
  6.7500003E-02    1.2537970E-18
  0.2100000        1.2579217E-18
  0.3525000        1.2611144E-18
  0.4950000        1.2629794E-18
  0.6375000        1.2633593E-18
  0.7800000        1.2623724E-18
  0.9225000        1.2603977E-18
   1.065000        1.2580056E-18
   1.207500        1.2558432E-18
   1.350000        1.2545047E-18
   1.492500        1.2544082E-18
   1.635000        1.2557076E-18
   1.777500        1.2582628E-18
   1.920000        1.2616718E-18
   2.062500        1.2653542E-18
   2.205000        1.2686672E-18
   2.347500        1.2710314E-18
   2.490000        1.2720400E-18
   2.632500        1.2715355E-18
   2.775000        1.2696387E-18
   2.917500        1.2667297E-18
   3.060000        1.2633805E-18
   3.202500        1.2602528E-18
   3.345000        1.2579746E-18
   3.487500        1.2570211E-18
   3.630000        1.2576222E-18
   3.772500        1.2597207E-18
   3.915000        1.2629871E-18
   4.057500        1.2668932E-18
   4.200000        1.2708249E-18
   4.342500        1.2742085E-18
   4.485000        1.2766215E-18
   4.627500        1.2778673E-18
   4.770000        1.2779958E-18
   4.912500        1.2772741E-18
   5.055000        1.2761172E-18
   5.197500        1.2749947E-18
   5.340000        1.2743314E-18
   5.482500        1.2744201E-18
   5.625000        1.2753605E-18
   5.767500        1.2770362E-18
   5.910000        1.2791333E-18
   6.052500        1.2812041E-18
   6.195000        1.2827634E-18
   6.337500        1.2833956E-18
   6.480000        1.2828585E-18
   6.622500        1.2811447E-18
   6.765000        1.2784979E-18
   6.907500        1.2753700E-18
   7.050000        1.2723336E-18
   7.192500        1.2699678E-18
   7.335000        1.2687460E-18
   7.477500        1.2689492E-18
   7.620000        1.2706167E-18
   7.762500        1.2735458E-18
   7.905000        1.2773342E-18
   8.047500        1.2814578E-18
   8.190000        1.2853670E-18
   8.332500        1.2885894E-18
   8.475000        1.2908187E-18
   8.617500        1.2919716E-18
   8.760000        1.2922053E-18
   8.902500        1.2918798E-18
   9.045000        1.2914820E-18
   9.187500        1.2915133E-18
   9.330000        1.2923769E-18
   9.472500        1.2942843E-18
   9.615000        1.2972040E-18
   9.757500        1.3008636E-18
   9.900000        1.3048052E-18
   10.04250        1.3084743E-18
   10.18500        1.3113299E-18
   10.32750        1.3129461E-18
   10.47000        1.3130942E-18
   10.61250        1.3117853E-18
   10.75500        1.3092712E-18
   10.89750        1.3060037E-18
   11.04000        1.3025542E-18
   11.18250        1.2995098E-18
   11.32500        1.2973650E-18
   11.46750        1.2964258E-18
   11.61000        1.2967557E-18
   11.75250        1.2981695E-18
   11.89500        1.3002808E-18
   12.03750        1.3025922E-18
   12.18000        1.3046099E-18
   12.32250        1.3059455E-18
   12.46500        1.3063966E-18
   12.60750        1.3059835E-18
   12.75000        1.3049375E-18
   12.89250        1.3036498E-18
   13.03500        1.3025906E-18
   13.17750        1.3022148E-18
   13.32000        1.3028692E-18
   13.46250        1.3047206E-18
   13.60500        1.3077101E-18
   13.74750        1.3115567E-18
   13.89000        1.3158004E-18
   14.03250        1.3198897E-18
   14.17500        1.3232915E-18
   14.31750        1.3255996E-18
   14.46000        1.3266219E-18
   14.60250        1.3264151E-18
   14.74500        1.3252721E-18
   14.88750        1.3236522E-18
   15.03000        1.3220857E-18
   15.17250        1.3210640E-18
   15.31500        1.3209461E-18
   15.45750        1.3218929E-18
   15.60000        1.3238415E-18
   15.74250        1.3265225E-18
   15.88500        1.3295092E-18
   16.02750        1.3323009E-18
   16.17000        1.3344185E-18
   16.31250        1.3355041E-18
   16.45500        1.3353996E-18
   16.59750        1.3341904E-18
   16.74000        1.3322006E-18
   16.88250        1.3299339E-18
   17.02500        1.3279725E-18
   17.16750        1.3268584E-18
   17.31000        1.3269782E-18
   17.45250        1.3284854E-18
   17.59500        1.3312699E-18
   17.73750        1.3349831E-18
   17.88000        1.3391056E-18
   18.02250        1.3430453E-18
   18.16500        1.3462436E-18
   18.30750        1.3482705E-18
   18.45000        1.3488986E-18
   18.59250        1.3481382E-18
   18.73500        1.3462342E-18
   18.87750        1.3436211E-18
   19.02000        1.3408406E-18
   19.16250        1.3384371E-18
   19.30500        1.3368505E-18
   19.44750        1.3363300E-18
   19.59000        1.3368881E-18
   19.73250        1.3383076E-18
   19.87500        1.3401988E-18
   20.01750        1.3420931E-18
   20.16000        1.3435482E-18
   20.30250        1.3442421E-18
   20.44500        1.3440375E-18
   20.58750        1.3430031E-18
   20.73000        1.3413949E-18
   20.87250        1.3396006E-18
   21.01500        1.3380616E-18
   21.15750        1.3371854E-18
   21.30000        1.3372624E-18
   21.44250        1.3384057E-18
   21.58500        1.3405247E-18
   21.72750        1.3433384E-18
   21.87000        1.3464358E-18
   22.01250        1.3493602E-18
   22.15500        1.3517162E-18
   22.29750        1.3532548E-18
   22.44000        1.3539307E-18
   22.58250        1.3539115E-18
   22.72500        1.3535364E-18
   22.86750        1.3532412E-18
   23.01000        1.3534615E-18
   23.15250        1.3545392E-18
   23.29500        1.3566480E-18
   23.43750        1.3597551E-18
   23.58000        1.3636176E-18
   23.72250        1.3678182E-18
   23.86500        1.3718383E-18
   24.00750        1.3751492E-18
   24.15000        1.3773151E-18
   24.29250        1.3780816E-18
   24.43500        1.3774343E-18
   24.57750        1.3756057E-18
   24.72000        1.3730318E-18
   24.86250        1.3702643E-18
   25.00500        1.3678557E-18
   25.14750        1.3662477E-18
   25.29000        1.3656876E-18
   25.43250        1.3661881E-18
   25.57500        1.3675379E-18
   25.71750        1.3693577E-18
   25.86000        1.3711845E-18
   26.00250        1.3725668E-18
   26.14500        1.3731586E-18
   26.28750        1.3727889E-18
   26.43000        1.3715019E-18
   26.57250        1.3695580E-18
   26.71500        1.3673939E-18
   26.85750        1.3655403E-18
   27.00000        1.3645170E-18
   27.14250        1.3647221E-18
   27.28500        1.3663425E-18
   27.42750        1.3693075E-18
   27.57000        1.3732986E-18
   27.71250        1.3778118E-18
   27.85500        1.3822620E-18
   27.99750        1.3860976E-18
   28.14000        1.3889056E-18
   28.28250        1.3904822E-18
   28.42500        1.3908578E-18
   28.56750        1.3902764E-18
   28.71000        1.3891383E-18
   28.85250        1.3879157E-18
   28.99500        1.3870595E-18
   29.13750        1.3869071E-18
   29.28000        1.3876133E-18
   29.42250        1.3891133E-18
   29.56500        1.3911296E-18
   29.70750        1.3932298E-18
   29.85000        1.3949183E-18
   29.99250        1.3957472E-18
   30.13500        1.3954259E-18
   30.27750        1.3938935E-18
   30.42000        1.3913441E-18
   30.56250        1.3881927E-18
   30.70500        1.3849974E-18
   30.84750        1.3823493E-18
   30.99000        1.3807618E-18
   31.13250        1.3805741E-18
   31.27500        1.3818866E-18
   31.41750        1.3845454E-18
   31.56000        1.3881663E-18
   31.70250        1.3922006E-18
   31.84500        1.3960341E-18
   31.98750        1.3990997E-18
   32.13000        1.4009834E-18
   32.27250        1.4015097E-18
   32.41500        1.4007757E-18
   32.55750        1.3991346E-18
   32.70000        1.3971256E-18
   32.84250        1.3953632E-18
   32.98500        1.3944144E-18
   33.12750        1.3946904E-18
   33.27000        1.3963697E-18
   33.41250        1.3993698E-18
   33.55500        1.4033712E-18
   33.69750        1.4078794E-18
   33.84000        1.4123144E-18
   33.98250        1.4161167E-18
   34.12500        1.4188426E-18
   34.26750        1.4202393E-18
   34.41000        1.4202891E-18
   34.55250        1.4192065E-18
   34.69500        1.4173901E-18
   34.83750        1.4153383E-18
   34.98000        1.4135433E-18
   35.12250        1.4123853E-18
   35.26500        1.4120585E-18
   35.40750        1.4125378E-18
   35.55000        1.4135958E-18
   35.69250        1.4148643E-18
   35.83500        1.4159255E-18
   35.97750        1.4164038E-18
   36.12000        1.4160466E-18
   36.26250        1.4147799E-18
   36.40500        1.4127262E-18
   36.54750        1.4101893E-18
   36.69000        1.4076069E-18
   36.83250        1.4054761E-18
   36.97500        1.4042668E-18
   37.11750        1.4043298E-18
   37.26000        1.4058264E-18
   37.40250        1.4086889E-18
   37.54500        1.4126254E-18
   37.68750        1.4171765E-18
   37.83000        1.4218039E-18
   37.97250        1.4259964E-18
   38.11500        1.4293662E-18
   38.25750        1.4317128E-18
   38.40000        1.4330452E-18
   38.54250        1.4335574E-18
   38.68500        1.4335715E-18
   38.82750        1.4334591E-18
   38.97000        1.4335653E-18
   39.11250        1.4341358E-18
   39.25500        1.4352729E-18
   39.39750        1.4369133E-18
   39.54000        1.4388387E-18
   39.68250        1.4407199E-18
   39.82500        1.4421851E-18
   39.96750        1.4429051E-18
   40.11000        1.4426780E-18
   40.25250        1.4414857E-18
   40.39500        1.4395147E-18
   40.53750        1.4371282E-18
   40.68000        1.4347969E-18
   40.82250        1.4330008E-18
   40.96500        1.4321350E-18
   41.10750        1.4324272E-18
   41.25000        1.4338995E-18
   41.39250        1.4363668E-18
   41.53500        1.4394769E-18
   41.67750        1.4427765E-18
   41.82000        1.4457916E-18
   41.96250        1.4481108E-18
   42.10500        1.4494573E-18
   42.24750        1.4497360E-18
   42.39000        1.4490465E-18
   42.53250        1.4476610E-18
   42.67500        1.4459618E-18
   42.81750        1.4443588E-18
   42.96000        1.4431951E-18
   43.10250        1.4426728E-18
   43.24500        1.4428101E-18
   43.38750        1.4434467E-18
   43.53000        1.4442892E-18
   43.67250        1.4449877E-18
   43.81500        1.4452214E-18
   43.95750        1.4447763E-18
   44.10000        1.4435951E-18
   44.24250        1.4417976E-18
   44.38500        1.4396613E-18
   44.52750        1.4375764E-18
   44.67000        1.4359734E-18
   44.81250        1.4352420E-18
   44.95500        1.4356524E-18
   45.09750        1.4372916E-18
   45.24000        1.4400350E-18
   45.38250        1.4435628E-18
   45.52500        1.4474165E-18
   45.66750        1.4510884E-18
   45.81000        1.4541251E-18
   45.95250        1.4562180E-18
   46.09500        1.4572604E-18
   46.23750        1.4573579E-18
   46.38000        1.4567976E-18
   46.52250        1.4559819E-18
   46.66500        1.4553443E-18
   46.80750        1.4552662E-18
   46.95000        1.4560080E-18
   47.09250        1.4576631E-18
   47.23500        1.4601410E-18
   47.37750        1.4631816E-18
   47.52000        1.4664039E-18
   47.66250        1.4693770E-18
   47.80500        1.4717093E-18
   47.94750        1.4731333E-18
   48.09000        1.4735650E-18
   48.23250        1.4731238E-18
   48.37500        1.4721066E-18
   48.51750        1.4709155E-18
   48.66000        1.4699665E-18
   48.80250        1.4695924E-18
   48.94500        1.4699755E-18
   49.08750        1.4711119E-18
   49.23000        1.4728175E-18
   49.37250        1.4747717E-18
   49.51500        1.4765805E-18
   49.65750        1.4778494E-18
   49.80000        1.4782588E-18
   49.94250        1.4776234E-18
   50.08500        1.4759382E-18
   50.22750        1.4733870E-18
   50.37000        1.4703278E-18
   50.51250        1.4672302E-18
   50.65500        1.4645903E-18
   50.79750        1.4628333E-18
   50.94000        1.4622247E-18
   51.08250        1.4628150E-18
   51.22500        1.4644331E-18
   51.36750        1.4667255E-18
   51.51000        1.4692356E-18
   51.65250        1.4714958E-18
   51.79500        1.4731201E-18
   51.93750        1.4738692E-18
   52.08000        1.4736906E-18
   52.22250        1.4727187E-18
   52.36500        1.4712501E-18
   52.50750        1.4696878E-18
   52.65000        1.4684670E-18
   52.79250        1.4679743E-18
   52.93500        1.4684692E-18
   53.07750        1.4700259E-18
   53.22000        1.4725125E-18
   53.36250        1.4756084E-18
   53.50500        1.4788726E-18
   53.64750        1.4818326E-18
   53.79000        1.4840852E-18
   53.93250        1.4853770E-18
   54.07500        1.4856540E-18
   54.21750        1.4850634E-18
   54.36000        1.4839209E-18
   54.50250        1.4826431E-18
   54.64500        1.4816702E-18
   54.78750        1.4813829E-18
   54.93000        1.4820316E-18
   55.07250        1.4836885E-18
   55.21500        1.4862267E-18
   55.35750        1.4893368E-18
   55.50000        1.4925816E-18
   55.64250        1.4954765E-18
   55.78500        1.4975932E-18
   55.92750        1.4986474E-18
   56.07000        1.4985593E-18
   56.21250        1.4974709E-18
   56.35500        1.4957106E-18
   56.49750        1.4937196E-18
   56.64000        1.4919613E-18
   56.78250        1.4908254E-18
   56.92500        1.4905606E-18
   57.06750        1.4912322E-18
   57.21000        1.4927158E-18
   57.35250        1.4947245E-18
   57.49500        1.4968602E-18
   57.63750        1.4986914E-18
   57.78000        1.4998329E-18
   57.92250        1.5000329E-18
   58.06500        1.4992333E-18
   58.20750        1.4975950E-18
   58.35000        1.4954748E-18
   58.49250        1.4933563E-18
   58.63500        1.4917463E-18
   58.77750        1.4910636E-18
   58.92000        1.4915489E-18
   59.06250        1.4932181E-18
   59.20500        1.4958637E-18
   59.34750        1.4991058E-18
   59.49000        1.5024703E-18
   59.63250        1.5054799E-18
   59.77500        1.5077391E-18
   59.91750        1.5090014E-18
   60.06000        1.5092115E-18
   60.20250        1.5085141E-18
   60.34500        1.5072339E-18
   60.48750        1.5058170E-18
   60.63000        1.5047466E-18
   60.77250        1.5044406E-18
   60.91500        1.5051582E-18
   61.05750        1.5069338E-18
   61.20000        1.5095622E-18
   61.34250        1.5126424E-18
   61.48500        1.5156601E-18
   61.62750        1.5181039E-18
   61.77000        1.5195714E-18
   61.91250        1.5198465E-18
   62.05500        1.5189355E-18
   62.19750        1.5170587E-18
   62.34000        1.5146023E-18
   62.48250        1.5120466E-18
   62.62500        1.5098831E-18
   62.76750        1.5085300E-18
   62.91000        1.5082552E-18
   63.05250        1.5091275E-18
   63.19500        1.5109955E-18
   63.33750        1.5135131E-18
   63.48000        1.5162043E-18
   63.62250        1.5185619E-18
   63.76500        1.5201565E-18
   63.90750        1.5207252E-18
   64.05000        1.5202263E-18
   64.19250        1.5188431E-18
   64.33500        1.5169343E-18
   64.47750        1.5149590E-18
   64.62000        1.5133817E-18
   64.76250        1.5125911E-18
   64.90500        1.5128335E-18
   65.04750        1.5141781E-18
   65.19000        1.5165083E-18
   65.33250        1.5195442E-18
   65.47500        1.5228930E-18
   65.61750        1.5261182E-18
   65.76000        1.5288250E-18
   65.90250        1.5307344E-18
   66.04500        1.5317420E-18
   66.18750        1.5319324E-18
   66.33000        1.5315493E-18
   66.47250        1.5309326E-18
   66.61500        1.5304292E-18
   66.75750        1.5303131E-18
   66.90000        1.5307268E-18
   67.04250        1.5316583E-18
   67.18500        1.5329553E-18
   67.32750        1.5343606E-18
   67.47000        1.5355677E-18
   67.61250        1.5362791E-18
   67.75500        1.5362639E-18
   67.89750        1.5354061E-18
   68.04000        1.5337401E-18
   68.18250        1.5314587E-18
   68.32500        1.5288961E-18
   68.46750        1.5264686E-18
   68.61000        1.5245961E-18
   68.75250        1.5236115E-18
   68.89500        1.5236876E-18
   69.03750        1.5247970E-18
   69.18000        1.5267228E-18
   69.32250        1.5291097E-18
   69.46500        1.5315409E-18
   69.60750        1.5336236E-18
   69.75000        1.5350571E-18
   69.89250        1.5356796E-18
   70.03500        1.5354852E-18
   70.17750        1.5346172E-18
   70.32000        1.5333429E-18
   70.46250        1.5320105E-18
   70.60500        1.5309883E-18
   70.74750        1.5305984E-18
   70.89000        1.5310441E-18
   71.03250        1.5323623E-18
   71.17500        1.5344042E-18
   71.31750        1.5368635E-18
   71.46000        1.5393406E-18
   71.60250        1.5414361E-18
   71.74500        1.5428385E-18
   71.88750        1.5433912E-18
   72.03000        1.5431168E-18
   72.17250        1.5421990E-18
   72.31500        1.5409367E-18
   72.45750        1.5396790E-18
   72.60000        1.5387604E-18
   72.74250        1.5384475E-18
   72.88500        1.5388937E-18
   73.02750        1.5401167E-18
   73.17000        1.5419928E-18
   73.31250        1.5442757E-18
   73.45500        1.5466413E-18
   73.59750        1.5487545E-18
   73.74000        1.5503486E-18
   73.88250        1.5512857E-18
   74.02500        1.5515942E-18
   74.16750        1.5514582E-18
   74.31000        1.5511693E-18
   74.45250        1.5510478E-18
   74.59500        1.5513608E-18
   74.73750        1.5522584E-18
   74.88000        1.5537425E-18
   75.02250        1.5556640E-18
   75.16500        1.5577560E-18
   75.30750        1.5596834E-18
   75.45000        1.5611036E-18
   75.59250        1.5617296E-18
   75.73500        1.5613879E-18
   75.87750        1.5600660E-18
   76.02000        1.5579304E-18
   76.16250        1.5553130E-18
   76.30500        1.5526586E-18
   76.44750        1.5504384E-18
   76.59000        1.5490489E-18
   76.73250        1.5487281E-18
   76.87500        1.5494998E-18
   77.01750        1.5511748E-18
   77.16000        1.5533938E-18
   77.30250        1.5557081E-18
   77.44500        1.5576717E-18
   77.58750        1.5589237E-18
   77.73000        1.5592520E-18
   77.87250        1.5586286E-18
   78.01500        1.5572144E-18
   78.15750        1.5553341E-18
   78.30000        1.5534282E-18
   78.44250        1.5519774E-18
   78.58500        1.5514104E-18
   78.72750        1.5520165E-18
   78.87000        1.5538750E-18
   79.01250        1.5568314E-18
   79.15500        1.5605249E-18
   79.29750        1.5644656E-18
   79.44000        1.5681443E-18
   79.58250        1.5711399E-18
   79.72500        1.5732024E-18
   79.86750        1.5742881E-18
   80.01000        1.5745488E-18
   80.15250        1.5742817E-18
   80.29500        1.5738572E-18
   80.43750        1.5736430E-18
   80.58000        1.5739302E-18
   80.72250        1.5748763E-18
   80.86500        1.5764666E-18
   81.00750        1.5785039E-18
   81.15000        1.5806316E-18
   81.29250        1.5823969E-18
   81.43500        1.5833401E-18
   81.57750        1.5831021E-18
   81.72000        1.5815167E-18
   81.86250        1.5786597E-18
   82.00500        1.5748476E-18
   82.14750        1.5705759E-18
   82.29000        1.5664206E-18
   82.43250        1.5629216E-18
   82.57500        1.5604870E-18
   82.71750        1.5593296E-18
   82.86000        1.5594419E-18
   83.00250        1.5606151E-18
   83.14500        1.5624854E-18
   83.28750        1.5646024E-18
   83.43000        1.5665076E-18
   83.57250        1.5678207E-18
   83.71500        1.5683102E-18
   83.85750        1.5679444E-18
   84.00000        1.5668998E-18
   84.14250        1.5655256E-18
   84.28500        1.5642644E-18
   84.42750        1.5635473E-18
   84.57000        1.5636921E-18
   84.71250        1.5648297E-18
   84.85500        1.5668750E-18
   84.99750        1.5695510E-18
   85.14000        1.5724509E-18
   85.28250        1.5751214E-18
   85.42500        1.5771494E-18
   85.56750        1.5782332E-18
   85.71000        1.5782323E-18
   85.85250        1.5771928E-18
   85.99500        1.5753423E-18
   86.13750        1.5730555E-18
   86.28000        1.5707934E-18
   86.42250        1.5690150E-18
   86.56500        1.5680869E-18
   86.70750        1.5682075E-18
   86.85000        1.5693663E-18
   86.99250        1.5713517E-18
   87.13500        1.5738050E-18
   87.27750        1.5763122E-18
   87.42000        1.5784938E-18
   87.56250        1.5800839E-18
   87.70500        1.5809746E-18
   87.84750        1.5812212E-18
   87.99000        1.5810189E-18
   88.13250        1.5806578E-18
   88.27500        1.5804662E-18
   88.41750        1.5807520E-18
   88.56000        1.5817406E-18
   88.70250        1.5835256E-18
   88.84500        1.5860357E-18
   88.98750        1.5890334E-18
   89.13000        1.5921516E-18
   89.27250        1.5949706E-18
   89.41500        1.5971131E-18
   89.55750        1.5983365E-18
   89.70000        1.5985948E-18
   89.84250        1.5980518E-18
   89.98500        1.5970429E-18
   90.12750        1.5959984E-18
   90.27000        1.5953518E-18
   90.41250        1.5954529E-18
   90.55500        1.5965077E-18
   90.69750        1.5985421E-18
   90.84000        1.6014015E-18
   90.98250        1.6047708E-18
   91.12500        1.6082178E-18
   91.26750        1.6112591E-18
   91.41000        1.6134425E-18
   91.55250        1.6144324E-18
   91.69500        1.6140864E-18
   91.83750        1.6124959E-18
   91.98000        1.6099766E-18
   92.12250        1.6070094E-18
   92.26500        1.6041377E-18
   92.40750        1.6018554E-18
   92.55000        1.6005074E-18
   92.69250        1.6002315E-18
   92.83500        1.6009480E-18
   92.97750        1.6023952E-18
   93.12000        1.6041952E-18
   93.26250        1.6059329E-18
   93.40500        1.6072374E-18
   93.54750        1.6078495E-18
   93.69000        1.6076685E-18
   93.83250        1.6067790E-18
   93.97500        1.6054378E-18
   94.11750        1.6040311E-18
   94.26000        1.6029927E-18
   94.40250        1.6027090E-18
   94.54500        1.6034253E-18
   94.68750        1.6051829E-18
   94.83000        1.6078013E-18
   94.97250        1.6109181E-18
   95.11500        1.6140670E-18
   95.25750        1.6167784E-18
   95.40000        1.6186766E-18
   95.54250        1.6195507E-18
   95.68500        1.6193895E-18
   95.82750        1.6183755E-18
   95.97000        1.6168503E-18
   96.11250        1.6152512E-18
   96.25500        1.6140303E-18
   96.39750        1.6135656E-18
   96.54000        1.6140832E-18
   96.68250        1.6156016E-18
   96.82500        1.6179141E-18
   96.96750        1.6206258E-18
   97.11000        1.6232362E-18
   97.25250        1.6252454E-18
   97.39500        1.6262687E-18
   97.53750        1.6261183E-18
   97.68000        1.6248376E-18
   97.82250        1.6226822E-18
   97.96500        1.6200566E-18
   98.10750        1.6174272E-18
   98.25000        1.6152313E-18
   98.39250        1.6138000E-18
   98.53500        1.6133030E-18
   98.67750        1.6137197E-18
   98.82000        1.6148378E-18
   98.96250        1.6162877E-18
   99.10500        1.6176057E-18
   99.24750        1.6183216E-18
   99.39000        1.6180624E-18