  -30.00000        9.7844703E-19
  -29.85750        9.8019931E-19
  -29.71500        9.8339739E-19
  -29.57250        9.8751313E-19
  -29.43000        9.9190536E-19
  -29.28750        9.9594789E-19
  -29.14500        9.9914867E-19
  -29.00250        1.0012395E-18
  -28.86000        1.0022155E-18
  -28.71750        1.0023274E-18
  -28.57500        1.0020215E-18
  -28.43250        1.0018472E-18
  -28.29000        1.0023454E-18
  -28.14750        1.0039350E-18
  -28.00500        1.0068211E-18
  -27.86250        1.0109471E-18
  -27.72000        1.0159937E-18
  -27.57750        1.0214398E-18
  -27.43500        1.0266651E-18
  -27.29250        1.0310779E-18
  -27.15000        1.0342388E-18
  -27.00750        1.0359521E-18
  -26.86500        1.0363033E-18
  -26.72250        1.0356394E-18
  -26.58000        1.0344941E-18
  -26.43750        1.0334802E-18
  -26.29500        1.0331691E-18
  -26.15250        1.0339831E-18
  -26.01000        1.0361168E-18
  -25.86750        1.0395032E-18
  -25.72500        1.0438283E-18
  -25.58250        1.0485905E-18
  -25.44000        1.0532013E-18
  -25.29750        1.0570987E-18
  -25.15500        1.0598669E-18
  -25.01250        1.0613220E-18
  -24.87000        1.0615529E-18
  -24.72750        1.0609028E-18
  -24.58500        1.0598971E-18
  -24.44250        1.0591313E-18
  -24.30000        1.0591416E-18
  -24.15750        1.0602979E-18
  -24.01500        1.0627285E-18
  -23.87250        1.0662993E-18
  -23.73000        1.0706466E-18
  -23.58750        1.0752532E-18
  -23.44500        1.0795502E-18
  -23.30250        1.0830305E-18
  -23.16000        1.0853468E-18
  -23.01750        1.0863815E-18
  -22.87500        1.0862726E-18
  -22.73250        1.0853903E-18
  -22.59000        1.0842636E-18
  -22.44750        1.0834731E-18
  -22.30500        1.0835278E-18
  -22.16250        1.0847585E-18
  -22.02000        1.0872413E-18
  -21.87750        1.0907868E-18
  -21.73500        1.0949795E-18
  -21.59250        1.0992692E-18
  -21.45000        1.1030898E-18
  -21.30750        1.1059754E-18
  -21.16500        1.1076562E-18
  -21.02250        1.1081097E-18
  -20.88000        1.1075642E-18
  -20.73750        1.1064536E-18
  -20.59500        1.1053335E-18
  -20.45250        1.1047715E-18
  -20.31000        1.1052371E-18
  -20.16750        1.1070031E-18
  -20.02500        1.1100841E-18
  -19.88250        1.1142279E-18
  -19.74000        1.1189610E-18
  -19.59750        1.1236884E-18
  -19.45500        1.1278164E-18
  -19.31250        1.1308834E-18
  -19.17000        1.1326579E-18
  -19.02750        1.1331901E-18
  -18.88500        1.1327998E-18
  -18.74250        1.1320095E-18
  -18.60000        1.1314395E-18
  -18.45750        1.1316794E-18
  -18.31500        1.1331753E-18
  -18.17250        1.1361372E-18
  -18.03000        1.1404949E-18
  -17.88750        1.1459021E-18
  -17.74500        1.1517928E-18
  -17.60250        1.1574811E-18
  -17.46000        1.1622871E-18
  -17.31750        1.1656685E-18
  -17.17500        1.1673290E-18
  -17.03250        1.1672793E-18
  -16.89000        1.1658372E-18
  -16.74750        1.1635661E-18
  -16.60500        1.1611608E-18
  -16.46250        1.1593090E-18
  -16.32000        1.1585588E-18
  -16.17750        1.1592191E-18
  -16.03500        1.1613094E-18
  -15.89250        1.1645696E-18
  -15.75000        1.1685194E-18
  -15.60750        1.1725581E-18
  -15.46500        1.1760804E-18
  -15.32250        1.1785933E-18
  -15.18000        1.1798083E-18
  -15.03750        1.1796989E-18
  -14.89500        1.1785016E-18
  -14.75250        1.1766692E-18
  -14.61000        1.1747733E-18
  -14.46750        1.1733830E-18
  -14.32500        1.1729381E-18
  -14.18250        1.1736547E-18
  -14.04000        1.1754767E-18
  -13.89750        1.1780881E-18
  -13.75500        1.1809843E-18
  -13.61250        1.1835791E-18
  -13.47000        1.1853326E-18
  -13.32750        1.1858582E-18
  -13.18500        1.1850062E-18
  -13.04250        1.1828962E-18
  -12.90000        1.1798996E-18
  -12.75750        1.1765765E-18
  -12.61500        1.1735771E-18
  -12.47250        1.1715208E-18
  -12.33000        1.1708818E-18
  -12.18750        1.1718967E-18
  -12.04500        1.1745142E-18
  -11.90250        1.1784064E-18
  -11.76000        1.1830322E-18
  -11.61750        1.1877470E-18
  -11.47500        1.1919336E-18
  -11.33250        1.1951217E-18
  -11.19000        1.1970748E-18
  -11.04750        1.1978267E-18
  -10.90500        1.1976591E-18
  -10.76250        1.1970313E-18
  -10.62000        1.1964813E-18
  -10.47750        1.1965126E-18
  -10.33500        1.1974919E-18
  -10.19250        1.1995740E-18
  -10.05000        1.2026676E-18
  -9.907500        1.2064479E-18
  -9.765000        1.2104151E-18
  -9.622500        1.2139914E-18
  -9.480000        1.2166361E-18
  -9.337500        1.2179571E-18
  -9.195000        1.2177936E-18
  -9.052500        1.2162498E-18
  -8.910000        1.2136722E-18
  -8.767500        1.2105760E-18
  -8.625000        1.2075382E-18
  -8.482500        1.2050804E-18
  -8.340000        1.2035731E-18
  -8.197500        1.2031699E-18
  -8.055000        1.2037921E-18
  -7.912500        1.2051591E-18
  -7.770000        1.2068507E-18
  -7.627500        1.2083992E-18
  -7.485000        1.2093854E-18
  -7.342500        1.2095297E-18
  -7.200000        1.2087524E-18
  -7.057500        1.2071994E-18
  -6.915000        1.2052176E-18
  -6.772500        1.2032850E-18
  -6.630000        1.2019101E-18
  -6.487500        1.2015219E-18
  -6.345000        1.2023721E-18
  -6.202500        1.2044780E-18
  -6.060000        1.2076182E-18
  -5.917500        1.2113809E-18
  -5.775000        1.2152487E-18
  -5.632500        1.2187071E-18
  -5.490000        1.2213452E-18
  -5.347500        1.2229324E-18
  -5.205000        1.2234602E-18
  -5.062500        1.2231408E-18
  -4.920000        1.2223608E-18
  -4.777500        1.2216067E-18
  -4.635000        1.2213664E-18
  -4.492500        1.2220238E-18
  -4.350000        1.2237750E-18
  -4.207500        1.2265728E-18
  -4.065000        1.2301236E-18
  -3.922500        1.2339403E-18
  -3.780000        1.2374347E-18
  -3.637500        1.2400402E-18
  -3.495000        1.2413284E-18
  -3.352500        1.2411003E-18
  -3.210000        1.2394282E-18
  -3.067500        1.2366411E-18
  -2.925000        1.2332631E-18
  -2.782500        1.2299127E-18
  -2.640000        1.2271908E-18
  -2.497500        1.2255735E-18
  -2.355000        1.2253282E-18
  -2.212500        1.2264710E-18
  -2.070000        1.2287666E-18
  -1.927500        1.2317775E-18
  -1.785000        1.2349541E-18
  -1.642500        1.2377455E-18
  -1.500000        1.2397182E-18
  -1.357500        1.2406482E-18
  -1.215000        1.2405687E-18
  -1.072500        1.2397609E-18
 -0.9300000        1.2386900E-18
 -0.7875000        1.2379024E-18
 -0.6450000        1.2379000E-18
 -0.5025000        1.2390341E-18
 -0.3600000        1.2414281E-18
 -0.2175000        1.2449471E-18
 -7.5000003E-02    1.2492243E-18
  6.7500003E-02    1.2537247E-18
  0.2100000        1.2578487E-18
  0.3525000        1.2610436E-18
  0.4950000        1.2629128E-18
  0.6375000        1.2632976E-18
  0.7800000        1.2623160E-18
  0.9225000        1.2603452E-18
   1.065000        1.2579549E-18
   1.207500        1.2557933E-18
   1.350000        1.2544547E-18
   1.492500        1.2543567E-18
   1.635000        1.2556539E-18
   1.777500        1.2582075E-18
   1.920000        1.2616164E-18
   2.062500        1.2653002E-18
   2.205000        1.2686160E-18
   2.347500        1.2709824E-18
   2.490000        1.2719936E-18
   2.632500        1.2714898E-18
   2.775000        1.2695921E-18
   2.917500        1.2666796E-18
   3.060000        1.2633253E-18
   3.202500        1.2601913E-18
   3.345000        1.2579065E-18
   3.487500        1.2569473E-18
   3.630000        1.2575447E-18
   3.772500        1.2596421E-18
   3.915000        1.2629103E-18
   4.057500        1.2668199E-18
   4.200000        1.2707565E-18
   4.342500        1.2741455E-18
   4.485000        1.2765631E-18
   4.627500        1.2778121E-18
   4.770000        1.2779418E-18
   4.912500        1.2772206E-18
   5.055000        1.2760641E-18
   5.197500        1.2749431E-18
   5.340000        1.2742839E-18
   5.482500        1.2743794E-18
   5.625000        1.2753292E-18
   5.767500        1.2770156E-18
   5.910000        1.2791234E-18
   6.052500        1.2812039E-18
   6.195000        1.2827703E-18
   6.337500        1.2834067E-18
   6.480000        1.2828700E-18
   6.622500        1.2811540E-18
   6.765000        1.2785035E-18
   6.907500        1.2753719E-18
   7.050000        1.2723327E-18
   7.192500        1.2699674E-18
   7.335000        1.2687500E-18
   7.477500        1.2689610E-18
   7.620000        1.2706394E-18
   7.762500        1.2735807E-18
   7.905000        1.2773807E-18
   8.047500        1.2815128E-18
   8.190000        1.2854264E-18
   8.332500        1.2886494E-18
   8.475000        1.2908758E-18
   8.617500        1.2920239E-18
   8.760000        1.2922518E-18
   8.902500        1.2919236E-18
   9.045000        1.2915253E-18
   9.187500        1.2915601E-18
   9.330000        1.2924311E-18
   9.472500        1.2943482E-18
   9.615000        1.2972768E-18
   9.757500        1.3009439E-18
   9.900000        1.3048889E-18
   10.04250        1.3085569E-18
   10.18500        1.3114073E-18
   10.32750        1.3130153E-18
   10.47000        1.3131535E-18
   10.61250        1.3118362E-18
   10.75500        1.3093182E-18
   10.89750        1.3060530E-18
   11.04000        1.3026132E-18
   11.18250        1.2995856E-18
   11.32500        1.2974615E-18
   11.46750        1.2965441E-18
   11.61000        1.2968928E-18
   11.75250        1.2983189E-18
   11.89500        1.3004343E-18
   12.03750        1.3027423E-18
   12.18000        1.3047491E-18
   12.32250        1.3060689E-18
   12.46500        1.3065038E-18
   12.60750        1.3060767E-18
   12.75000        1.3050219E-18
   12.89250        1.3037326E-18
   13.03500        1.3026785E-18
   13.17750        1.3023120E-18
   13.32000        1.3029771E-18
   13.46250        1.3048363E-18
   13.60500        1.3078276E-18
   13.74750        1.3116681E-18
   13.89000        1.3158969E-18
   14.03250        1.3199649E-18
   14.17500        1.3233413E-18
   14.31750        1.3256246E-18
   14.46000        1.3266259E-18
   14.60250        1.3264058E-18
   14.74500        1.3252580E-18
   14.88750        1.3236425E-18
   15.03000        1.3220867E-18
   15.17250        1.3210799E-18
   15.31500        1.3209762E-18
   15.45750        1.3219332E-18
   15.60000        1.3238862E-18
   15.74250        1.3265644E-18
   15.88500        1.3295422E-18
   16.02750        1.3323206E-18
   16.17000        1.3344245E-18
   16.31250        1.3354991E-18
   16.45500        1.3353892E-18
   16.59750        1.3341818E-18
   16.74000        1.3322011E-18
   16.88250        1.3299484E-18
   17.02500        1.3280035E-18
   17.16750        1.3269029E-18
   17.31000        1.3270312E-18
   17.45250        1.3285384E-18
   17.59500        1.3313146E-18
   17.73750        1.3350116E-18
   17.88000        1.3391120E-18
   18.02250        1.3430297E-18
   18.16500        1.3462088E-18
   18.30750        1.3482242E-18
   18.45000        1.3488494E-18
   18.59250        1.3480957E-18
   18.73500        1.3462066E-18
   18.87750        1.3436133E-18
   19.02000        1.3408537E-18
   19.16250        1.3384684E-18
   19.30500        1.3368941E-18
   19.44750        1.3363777E-18
   19.59000        1.3369317E-18
   19.73250        1.3383404E-18
   19.87500        1.3402180E-18
   20.01750        1.3420986E-18
   20.16000        1.3435434E-18
   20.30250        1.3442333E-18
   20.44500        1.3440312E-18
   20.58750        1.3430055E-18
   20.73000        1.3414104E-18
   20.87250        1.3396304E-18
   21.01500        1.3381027E-18
   21.15750        1.3372321E-18
   21.30000        1.3373081E-18
   21.44250        1.3384429E-18
   21.58500        1.3405473E-18
   21.72750        1.3433432E-18
   21.87000        1.3464211E-18
   22.01250        1.3493294E-18
   22.15500        1.3516744E-18
   22.29750        1.3532094E-18
   22.44000        1.3538893E-18
   22.58250        1.3538793E-18
   22.72500        1.3535166E-18
   22.86750        1.3532336E-18
   23.01000        1.3534626E-18
   23.15250        1.3545428E-18
   23.29500        1.3566477E-18
   23.43750        1.3597448E-18
   23.58000        1.3635925E-18
   23.72250        1.3677773E-18
   23.86500        1.3717825E-18
   24.00750        1.3750829E-18
   24.15000        1.3772458E-18
   24.29250        1.3780180E-18
   24.43500        1.3773846E-18
   24.57750        1.3755768E-18
   24.72000        1.3730270E-18
   24.86250        1.3702839E-18
   25.00500        1.3678962E-18
   25.14750        1.3663032E-18
   25.29000        1.3657504E-18
   25.43250        1.3662515E-18
   25.57500        1.3675963E-18
   25.71750        1.3694079E-18
   25.86000        1.3712268E-18
   26.00250        1.3726038E-18
   26.14500        1.3731938E-18
   26.28750        1.3728264E-18
   26.43000        1.3715453E-18
   26.57250        1.3696097E-18
   26.71500        1.3674538E-18
   26.85750        1.3656058E-18
   27.00000        1.3645820E-18
   27.14250        1.3647795E-18
   27.28500        1.3663848E-18
   27.42750        1.3693287E-18
   27.57000        1.3732938E-18
   27.71250        1.3777798E-18
   27.85500        1.3822045E-18
   27.99750        1.3860209E-18
   28.14000        1.3888174E-18
   28.28250        1.3903918E-18
   28.42500        1.3907739E-18
   28.56750        1.3902064E-18
   28.71000        1.3890853E-18
   28.85250        1.3878812E-18
   28.99500        1.3870409E-18
   29.13750        1.3869000E-18
   29.28000        1.3876123E-18
   29.42250        1.3891126E-18
   29.56500        1.3911242E-18
   29.70750        1.3932168E-18
   29.85000        1.3948961E-18
   29.99250        1.3957183E-18
   30.13500        1.3953945E-18
   30.27750        1.3938651E-18
   30.42000        1.3913217E-18
   30.56250        1.3881783E-18
   30.70500        1.3849908E-18
   30.84750        1.3823479E-18
   30.99000        1.3807619E-18
   31.13250        1.3805690E-18
   31.27500        1.3818709E-18
   31.41750        1.3845146E-18
   31.56000        1.3881185E-18
   31.70250        1.3921369E-18
   31.84500        1.3959595E-18
   31.98750        1.3990208E-18
   32.13000        1.4009094E-18
   32.27250        1.4014502E-18
   32.41500        1.4007395E-18
   32.55750        1.3991277E-18
   32.70000        1.3971488E-18
   32.84250        1.3954139E-18
   32.98500        1.3944881E-18
   33.12750        1.3947795E-18
   33.27000        1.3964654E-18
   33.41250        1.3994662E-18
   33.55500        1.4034635E-18
   33.69750        1.4079647E-18
   33.84000        1.4123945E-18
   33.98250        1.4161947E-18
   34.12500        1.4189224E-18
   34.26750        1.4203259E-18
   34.41000        1.4203864E-18
   34.55250        1.4193156E-18
   34.69500        1.4175098E-18
   34.83750        1.4154647E-18
   34.98000        1.4136695E-18
   35.12250        1.4125056E-18
   35.26500        1.4121675E-18
   35.40750        1.4126315E-18
   35.55000        1.4136736E-18
   35.69250        1.4149297E-18
   35.83500        1.4159841E-18
   35.97750        1.4164619E-18
   36.12000        1.4161116E-18
   36.26250        1.4148566E-18
   36.40500        1.4128167E-18
   36.54750        1.4102922E-18
   36.69000        1.4077163E-18
   36.83250        1.4055839E-18
   36.97500        1.4043620E-18
   37.11750        1.4044028E-18
   37.26000        1.4058681E-18
   37.40250        1.4086932E-18
   37.54500        1.4125910E-18
   37.68750        1.4171067E-18
   37.83000        1.4217053E-18
   37.97250        1.4258784E-18
   38.11500        1.4292384E-18
   38.25750        1.4315847E-18
   38.40000        1.4329232E-18
   38.54250        1.4334450E-18
   38.68500        1.4334683E-18
   38.82750        1.4333629E-18
   38.97000        1.4334713E-18
   39.11250        1.4340414E-18
   39.25500        1.4351757E-18
   39.39750        1.4368142E-18
   39.54000        1.4387409E-18
   39.68250        1.4406291E-18
   39.82500        1.4421074E-18
   39.96750        1.4428475E-18
   40.11000        1.4426463E-18
   40.25250        1.4414831E-18
   40.39500        1.4395402E-18
   40.53750        1.4371793E-18
   40.68000        1.4348665E-18
   40.82250        1.4330815E-18
   40.96500        1.4322176E-18
   41.10750        1.4325046E-18
   41.25000        1.4339669E-18
   41.39250        1.4364237E-18
   41.53500        1.4395249E-18
   41.67750        1.4428182E-18
   41.82000        1.4458303E-18
   41.96250        1.4481510E-18
   42.10500        1.4495010E-18
   42.24750        1.4497836E-18
   42.39000        1.4490970E-18
   42.53250        1.4477113E-18
   42.67500        1.4460085E-18
   42.81750        1.4443978E-18
   42.96000        1.4432213E-18
   43.10250        1.4426837E-18
   43.24500        1.4428055E-18
   43.38750        1.4434274E-18
   43.53000        1.4442581E-18
   43.67250        1.4449480E-18
   43.81500        1.4451766E-18
   43.95750        1.4447279E-18
   44.10000        1.4435442E-18
   44.24250        1.4417440E-18
   44.38500        1.4396038E-18
   44.52750        1.4375130E-18
   44.67000        1.4359021E-18
   44.81250        1.4351612E-18
   44.95500        1.4355602E-18
   45.09750        1.4371876E-18
   45.24000        1.4399214E-18
   45.38250        1.4434420E-18
   45.52500        1.4472914E-18
   45.66750        1.4509634E-18
   45.81000        1.4540052E-18
   45.95250        1.4561080E-18
   46.09500        1.4571637E-18
   46.23750        1.4572769E-18
   46.38000        1.4567327E-18
   46.52250        1.4559316E-18
   46.66500        1.4553049E-18
   46.80750        1.4552332E-18
   46.95000        1.4559766E-18
   47.09250        1.4576277E-18
   47.23500        1.4600954E-18
   47.37750        1.4631215E-18
   47.52000        1.4663262E-18
   47.66250        1.4692810E-18
   47.80500        1.4715983E-18
   47.94750        1.4730126E-18
   48.09000        1.4734418E-18
   48.23250        1.4730063E-18
   48.37500        1.4720013E-18
   48.51750        1.4708266E-18
   48.66000        1.4698926E-18
   48.80250        1.4695315E-18
   48.94500        1.4699217E-18
   49.08750        1.4710577E-18
   49.23000        1.4727574E-18
   49.37250        1.4747024E-18
   49.51500        1.4765013E-18
   49.65750        1.4777645E-18
   49.80000        1.4781757E-18
   49.94250        1.4775528E-18
   50.08500        1.4758906E-18
   50.22750        1.4733739E-18
   50.37000        1.4703558E-18
   50.51250        1.4673000E-18
   50.65500        1.4646971E-18
   50.79750        1.4629658E-18
   50.94000        1.4623669E-18
   51.08250        1.4629509E-18
   51.22500        1.4645481E-18
   51.36750        1.4668099E-18
   51.51000        1.4692857E-18
   51.65250        1.4715161E-18
   51.79500        1.4731195E-18
   51.93750        1.4738613E-18
   52.08000        1.4736888E-18
   52.22250        1.4727346E-18
   52.36500        1.4712901E-18
   52.50750        1.4697512E-18
   52.65000        1.4685474E-18
   52.79250        1.4680591E-18
   52.93500        1.4685447E-18
   53.07750        1.4700801E-18
   53.22000        1.4725364E-18
   53.36250        1.4756018E-18
   53.50500        1.4788431E-18
   53.64750        1.4817945E-18
   53.79000        1.4840566E-18
   53.93250        1.4853766E-18
   54.07500        1.4856951E-18
   54.21750        1.4851532E-18
   54.36000        1.4840560E-18
   54.50250        1.4828117E-18
   54.64500        1.4818522E-18
   54.78750        1.4815549E-18
   54.93000        1.4821717E-18
   55.07250        1.4837794E-18
   55.21500        1.4862589E-18
   55.35750        1.4893122E-18
   55.50000        1.4925091E-18
   55.64250        1.4953750E-18
   55.78500        1.4974837E-18
   55.92750        1.4985493E-18
   56.07000        1.4984874E-18
   56.21250        1.4974299E-18
   56.35500        1.4956969E-18
   56.49750        1.4937215E-18
   56.64000        1.4919603E-18
   56.78250        1.4908034E-18
   56.92500        1.4905022E-18
   57.06750        1.4911282E-18
   57.21000        1.4925676E-18
   57.35250        1.4945416E-18
   57.49500        1.4966603E-18
   57.63750        1.4984940E-18
   57.78000        1.4996592E-18
   57.92250        1.4998989E-18
   58.06500        1.4991467E-18
   58.20750        1.4975548E-18
   58.35000        1.4954717E-18
   58.49250        1.4933737E-18
   58.63500        1.4917645E-18
   58.77750        1.4910652E-18
   58.92000        1.4915224E-18
   59.06250        1.4931598E-18
   59.20500        1.4957788E-18
   59.34750        1.4990062E-18
   59.49000        1.5023716E-18
   59.63250        1.5053991E-18
   59.77500        1.5076901E-18
   59.91750        1.5089920E-18
   60.06000        1.5092416E-18
   60.20250        1.5085760E-18
   60.34500        1.5073138E-18
   60.48750        1.5058983E-18
   60.63000        1.5048122E-18
   60.77250        1.5044775E-18
   60.91500        1.5051595E-18
   61.05750        1.5069003E-18
   61.20000        1.5095039E-18
   61.34250        1.5125731E-18
   61.48500        1.5155988E-18
   61.62750        1.5180686E-18
   61.77000        1.5195759E-18
   61.91250        1.5198977E-18
   62.05500        1.5190340E-18
   62.19750        1.5171981E-18
   62.34000        1.5147717E-18
   62.48250        1.5122330E-18
   62.62500        1.5100734E-18
   62.76750        1.5087133E-18
   62.91000        1.5084261E-18
   63.05250        1.5092850E-18
   63.19500        1.5111433E-18
   63.33750        1.5136579E-18
   63.48000        1.5163545E-18
   63.62250        1.5187252E-18
   63.76500        1.5203374E-18
   63.90750        1.5209246E-18
   64.05000        1.5204405E-18
   64.19250        1.5190626E-18
   64.33500        1.5171461E-18
   64.47750        1.5151470E-18
   64.62000        1.5135321E-18
   64.76250        1.5126911E-18
   64.90500        1.5128751E-18
   65.04750        1.5141575E-18
   65.19000        1.5164280E-18
   65.33250        1.5194126E-18
   65.47500        1.5227212E-18
   65.61750        1.5259202E-18
   65.76000        1.5286149E-18
   65.90250        1.5305258E-18
   66.04500        1.5315454E-18
   66.18750        1.5317536E-18
   66.33000        1.5313899E-18
   66.47250        1.5307894E-18
   66.61500        1.5302966E-18
   66.75750        1.5301844E-18
   66.90000        1.5305972E-18
   67.04250        1.5315273E-18
   67.18500        1.5328252E-18
   67.32750        1.5342388E-18
   67.47000        1.5354646E-18
   67.61250        1.5362062E-18
   67.75500        1.5362316E-18
   67.89750        1.5354213E-18
   68.04000        1.5338039E-18
   68.18250        1.5315658E-18
   68.32500        1.5290336E-18
   68.46750        1.5266196E-18
   68.61000        1.5247412E-18
   68.75250        1.5237326E-18
   68.89500        1.5237700E-18
   69.03750        1.5248346E-18
   69.18000        1.5267170E-18
   69.32250        1.5290712E-18
   69.46500        1.5314870E-18
   69.60750        1.5335743E-18
   69.75000        1.5350320E-18
   69.89250        1.5356933E-18
   70.03500        1.5355436E-18
   70.17750        1.5347185E-18
   70.32000        1.5334765E-18
   70.46250        1.5321590E-18
   70.60500        1.5311335E-18
   70.74750        1.5307220E-18
   70.89000        1.5311349E-18
   71.03250        1.5324161E-18
   71.17500        1.5344264E-18
   71.31750        1.5368662E-18
   71.46000        1.5393402E-18
   71.60250        1.5414483E-18
   71.74500        1.5428748E-18
   71.88750        1.5434547E-18
   72.03000        1.5432006E-18
   72.17250        1.5422876E-18
   72.31500        1.5410084E-18
   72.45750        1.5397117E-18
   72.60000        1.5387362E-18
   72.74250        1.5383550E-18
   72.88500        1.5387342E-18
   73.02750        1.5399030E-18
   73.17000        1.5417469E-18
   73.31250        1.5440246E-18
   73.45500        1.5464108E-18
   73.59750        1.5485669E-18
   73.74000        1.5502145E-18
   73.88250        1.5512049E-18
   74.02500        1.5515540E-18
   74.16750        1.5514371E-18
   74.31000        1.5511411E-18
   74.45250        1.5509864E-18
   74.59500        1.5512478E-18
   74.73750        1.5520856E-18
   74.88000        1.5535120E-18
   75.02250        1.5553885E-18
   75.16500        1.5574562E-18
   75.30750        1.5593807E-18
   75.45000        1.5608162E-18
   75.59250        1.5614685E-18
   75.73500        1.5611566E-18
   75.87750        1.5598590E-18
   76.02000        1.5577360E-18
   76.16250        1.5551181E-18
   76.30500        1.5524523E-18
   76.44750        1.5502132E-18
   76.59000        1.5488068E-18
   76.73250        1.5484784E-18
   76.87500        1.5492586E-18
   77.01750        1.5509615E-18
   77.16000        1.5532270E-18
   77.30250        1.5556011E-18
   77.44500        1.5576288E-18
   77.58750        1.5589409E-18
   77.73000        1.5593184E-18
   77.87250        1.5587272E-18
   78.01500        1.5573269E-18
   78.15750        1.5554454E-18
   78.30000        1.5535296E-18
   78.44250        1.5520658E-18
   78.58500        1.5514909E-18
   78.72750        1.5520982E-18
   78.87000        1.5539671E-18
   79.01250        1.5569404E-18
   79.15500        1.5606521E-18
   79.29750        1.5646083E-18
   79.44000        1.5682937E-18
   79.58250        1.5712845E-18
   79.72500        1.5733301E-18
   79.86750        1.5743910E-18
   80.01000        1.5746242E-18
   80.15250        1.5743349E-18
   80.29500        1.5739007E-18
   80.43750        1.5736926E-18
   80.58000        1.5740023E-18
   80.72250        1.5749836E-18
   80.86500        1.5766150E-18
   81.00750        1.5786904E-18
   81.15000        1.5808446E-18
   81.29250        1.5826186E-18
   81.43500        1.5835506E-18
   81.57750        1.5832853E-18
   81.72000        1.5816608E-18
   81.86250        1.5787623E-18
   82.00500        1.5749133E-18
   82.14750        1.5706146E-18
   82.29000        1.5664437E-18
   82.43250        1.5629382E-18
   82.57500        1.5605011E-18
   82.71750        1.5593362E-18
   82.86000        1.5594283E-18
   83.00250        1.5605628E-18
   83.14500        1.5623743E-18
   83.28750        1.5644143E-18
   83.43000        1.5662344E-18
   83.57250        1.5674649E-18
   83.71500        1.5678881E-18
   83.85750        1.5674828E-18
   84.00000        1.5664321E-18
   84.14250        1.5650859E-18
   84.28500        1.5638803E-18
   84.42750        1.5632358E-18
   84.57000        1.5634567E-18
   84.71250        1.5646607E-18
   84.85500        1.5667539E-18
   84.99750        1.5694556E-18
   85.14000        1.5723620E-18
   85.28250        1.5750285E-18
   85.42500        1.5770538E-18
   85.56750        1.5781468E-18
   85.71000        1.5781752E-18
   85.85250        1.5771878E-18
   85.99500        1.5754078E-18
   86.13750        1.5731999E-18
   86.28000        1.5710091E-18
   86.42250        1.5692793E-18
   86.56500        1.5683643E-18
   86.70750        1.5684571E-18
   86.85000        1.5695494E-18
   86.99250        1.5714414E-18
   87.13500        1.5737952E-18
   87.27750        1.5762177E-18
   87.42000        1.5783505E-18
   87.56250        1.5799419E-18
   87.70500        1.5808890E-18
   87.84750        1.5812415E-18
   87.99000        1.5811787E-18
   88.13250        1.5809690E-18
   88.27500        1.5809157E-18
   88.41750        1.5813047E-18
   88.56000        1.5823483E-18
   88.70250        1.5841355E-18
   88.84500        1.5866030E-18
   88.98750        1.5895302E-18
   89.13000        1.5925729E-18
   89.27250        1.5953348E-18
   89.41500        1.5974549E-18
   89.55750        1.5986988E-18
   89.70000        1.5990157E-18
   89.84250        1.5985535E-18
   89.98500        1.5976240E-18
   90.12750        1.5966308E-18
   90.27000        1.5959832E-18
   90.41250        1.5960178E-18
   90.55500        1.5969382E-18
   90.69750        1.5987826E-18
   90.84000        1.6014188E-18
   90.98250        1.6045609E-18
   91.12500        1.6078074E-18
   91.26750        1.6106997E-18
   91.41000        1.6128007E-18
   91.55250        1.6137768E-18
   91.69500        1.6134747E-18
   91.83750        1.6119629E-18
   91.98000        1.6095308E-18
   92.12250        1.6066322E-18
   92.26500        1.6037915E-18
   92.40750        1.6014948E-18
   92.55000        1.6000927E-18
   92.69250        1.5997400E-18
   92.83500        1.6003820E-18
   92.97750        1.6017835E-18
   93.12000        1.6035874E-18
   93.26250        1.6053917E-18
   93.40500        1.6068226E-18
   93.54750        1.6076045E-18
   93.69000        1.6076125E-18
   93.83250        1.6068995E-18
   93.97500        1.6056938E-18
   94.11750        1.6043588E-18
   94.26000        1.6033193E-18
   94.40250        1.6029661E-18
   94.54500        1.6035631E-18
   94.68750        1.6051790E-18
   94.83000        1.6076646E-18
   94.97250        1.6106854E-18
   95.11500        1.6137941E-18
   95.25750        1.6165276E-18
   95.40000        1.6185023E-18
   95.54250        1.6194868E-18
   95.68500        1.6194408E-18
   95.82750        1.6185187E-18
   95.97000        1.6170394E-18
   96.11250        1.6154277E-18
   96.25500        1.6141357E-18
   96.39750        1.6135573E-18
   96.54000        1.6139427E-18
   96.68250        1.6153397E-18
   96.82500        1.6175700E-18
   96.96750        1.6202588E-18
   97.11000        1.6229121E-18
   97.25250        1.6250247E-18
   97.39500        1.6261936E-18
   97.53750        1.6262018E-18
   97.68000        1.6250617E-18
   97.82250        1.6229997E-18
   97.96500        1.6204009E-18
   98.10750        1.6177261E-18
   98.25000        1.6154212E-18
   98.39250        1.6138381E-18
   98.53500        1.6131754E-18
   98.67750        1.6134431E-18
   98.82000        1.6144585E-18
   98.96250        1.6158691E-18
   99.10500        1.6172157E-18
   99.24750        1.6180206E-18
   99.39000        1.6178905E-18