  -30.00000        9.8404830E-18
  -29.85750        9.8575444E-18
  -29.71500        9.8833773E-18
  -29.57250        9.9064540E-18
  -29.43000        9.9186673E-18
  -29.28750        9.9198593E-18
  -29.14500        9.9175299E-18
  -29.00250        9.9219380E-18
  -28.86000        9.9395933E-18
  -28.71750        9.9690583E-18
  -28.57500        1.0001610E-17
  -28.43250        1.0026345E-17
  -28.29000        1.0036668E-17
  -28.14750        1.0034238E-17
  -28.00500        1.0027999E-17
  -27.86250        1.0028878E-17
  -27.72000        1.0043319E-17
  -27.57750        1.0069542E-17
  -27.43500        1.0098720E-17
  -27.29250        1.0120369E-17
  -27.15000        1.0128662E-17
  -27.00750        1.0125884E-17
  -26.86500        1.0120963E-17
  -26.72250        1.0124005E-17
  -26.58000        1.0140147E-17
  -26.43750        1.0166456E-17
  -26.29500        1.0193726E-17
  -26.15250        1.0212079E-17
  -26.01000        1.0216954E-17
  -25.86750        1.0211876E-17
  -25.72500        1.0206311E-17
  -25.58250        1.0209948E-17
  -25.44000        1.0226830E-17
  -25.29750        1.0252930E-17
  -25.15500        1.0278592E-17
  -25.01250        1.0294379E-17
  -24.87000        1.0296766E-17
  -24.72750        1.0290252E-17
  -24.58500        1.0284600E-17
  -24.44250        1.0288914E-17
  -24.30000        1.0306134E-17
  -24.15750        1.0331284E-17
  -24.01500        1.0354554E-17
  -23.87250        1.0367304E-17
  -23.73000        1.0367374E-17
  -23.58750        1.0360439E-17
  -23.44500        1.0356578E-17
  -23.30250        1.0364138E-17
  -23.16000        1.0384595E-17
  -23.01750        1.0411554E-17
  -22.87500        1.0434517E-17
  -22.73250        1.0445157E-17
  -22.59000        1.0442316E-17
  -22.44750        1.0432706E-17
  -22.30500        1.0426874E-17
  -22.16250        1.0432849E-17
  -22.02000        1.0451318E-17
  -21.87750        1.0475250E-17
  -21.73500        1.0494179E-17
  -21.59250        1.0500592E-17
  -21.45000        1.0494533E-17
  -21.30750        1.0483625E-17
  -21.16500        1.0478478E-17
  -21.02250        1.0486239E-17
  -20.88000        1.0506172E-17
  -20.73750        1.0529964E-17
  -20.59500        1.0546613E-17
  -20.45250        1.0548976E-17
  -20.31000        1.0538060E-17
  -20.16750        1.0522479E-17
  -20.02500        1.0513380E-17
  -19.88250        1.0517891E-17
  -19.74000        1.0534990E-17
  -19.59750        1.0556287E-17
  -19.45500        1.0571223E-17
  -19.31250        1.0573530E-17
  -19.17000        1.0565078E-17
  -19.02750        1.0554761E-17
  -18.88500        1.0553094E-17
  -18.74250        1.0565770E-17
  -18.60000        1.0590052E-17
  -18.45750        1.0616194E-17
  -18.31500        1.0633054E-17
  -18.17250        1.0634557E-17
  -18.03000        1.0623148E-17
  -17.88750        1.0608208E-17
  -17.74500        1.0600387E-17
  -17.60250        1.0605286E-17
  -17.46000        1.0620265E-17
  -17.31750        1.0636268E-17
  -17.17500        1.0643529E-17
  -17.03250        1.0637678E-17
  -16.89000        1.0622567E-17
  -16.74750        1.0608103E-17
  -16.60500        1.0604382E-17
  -16.46250        1.0615681E-17
  -16.32000        1.0637912E-17
  -16.17750        1.0661058E-17
  -16.03500        1.0675122E-17
  -15.89250        1.0676014E-17
  -15.75000        1.0667824E-17
  -15.60750        1.0660182E-17
  -15.46500        1.0662289E-17
  -15.32250        1.0677290E-17
  -15.18000        1.0700341E-17
  -15.03750        1.0721555E-17
  -14.89500        1.0731997E-17
  -14.75250        1.0729093E-17
  -14.61000        1.0718180E-17
  -14.46750        1.0709238E-17
  -14.32500        1.0710837E-17
  -14.18250        1.0724930E-17
  -14.04000        1.0745676E-17
  -13.89750        1.0763000E-17
  -13.75500        1.0768724E-17
  -13.61250        1.0761564E-17
  -13.47000        1.0747946E-17
  -13.32750        1.0738176E-17
  -13.18500        1.0740235E-17
  -13.04250        1.0755001E-17
  -12.90000        1.0775772E-17
  -12.75750        1.0792358E-17
  -12.61500        1.0797299E-17
  -12.47250        1.0790389E-17
  -12.33000        1.0778799E-17
  -12.18750        1.0772671E-17
  -12.04500        1.0778902E-17
  -11.90250        1.0796852E-17
  -11.76000        1.0818635E-17
  -11.61750        1.0833819E-17
  -11.47500        1.0835732E-17
  -11.33250        1.0825555E-17
  -11.19000        1.0811704E-17
  -11.04750        1.0804857E-17
  -10.90500        1.0811604E-17
  -10.76250        1.0830521E-17
  -10.62000        1.0853075E-17
  -10.47750        1.0868773E-17
  -10.33500        1.0871502E-17
  -10.19250        1.0863195E-17
  -10.05000        1.0852634E-17
  -9.907500        1.0850074E-17
  -9.765000        1.0860963E-17
  -9.622500        1.0882527E-17
  -9.480000        1.0905323E-17
  -9.337500        1.0918845E-17
  -9.195000        1.0917830E-17
  -9.052500        1.0905474E-17
  -8.910000        1.0891608E-17
  -8.767500        1.0886909E-17
  -8.625000        1.0896597E-17
  -8.482500        1.0917397E-17
  -8.340000        1.0939562E-17
  -8.197500        1.0952742E-17
  -8.055000        1.0952164E-17
  -7.912500        1.0941420E-17
  -7.770000        1.0930198E-17
  -7.627500        1.0928340E-17
  -7.485000        1.0939824E-17
  -7.342500        1.0960289E-17
  -7.200000        1.0979608E-17
  -7.057500        1.0987972E-17
  -6.915000        1.0981812E-17
  -6.772500        1.0966023E-17
  -6.630000        1.0951137E-17
  -6.487500        1.0947155E-17
  -6.345000        1.0957723E-17
  -6.202500        1.0978129E-17
  -6.060000        1.0998289E-17
  -5.917500        1.1008881E-17
  -5.775000        1.1006947E-17
  -5.632500        1.0997556E-17
  -5.490000        1.0990607E-17
  -5.347500        1.0994686E-17
  -5.205000        1.1011754E-17
  -5.062500        1.1035846E-17
  -4.920000        1.1056587E-17
  -4.777500        1.1065390E-17
  -4.635000        1.1060581E-17
  -4.492500        1.1048381E-17
  -4.350000        1.1039142E-17
  -4.207500        1.1041143E-17
  -4.065000        1.1055663E-17
  -3.922500        1.1076317E-17
  -3.780000        1.1093017E-17
  -3.637500        1.1098136E-17
  -3.495000        1.1091137E-17
  -3.352500        1.1078873E-17
  -3.210000        1.1071381E-17
  -3.067500        1.1075747E-17
  -2.925000        1.1091769E-17
  -2.782500        1.1112060E-17
  -2.640000        1.1126531E-17
  -2.497500        1.1128537E-17
  -2.355000        1.1118948E-17
  -2.212500        1.1105679E-17
  -2.070000        1.1098937E-17
  -1.927500        1.1105068E-17
  -1.785000        1.1122718E-17
  -1.642500        1.1143651E-17
  -1.500000        1.1157720E-17
  -1.357500        1.1159000E-17
  -1.215000        1.1149362E-17
  -1.072500        1.1137321E-17
 -0.9300000        1.1132844E-17
 -0.7875000        1.1141272E-17
 -0.6450000        1.1160024E-17
 -0.5025000        1.1180126E-17
 -0.3600000        1.1191631E-17
 -0.2175000        1.1189677E-17
 -7.5000003E-02    1.1177515E-17
  6.7500003E-02    1.1164633E-17
  0.2100000        1.1161109E-17
  0.3525000        1.1171551E-17
  0.4950000        1.1192294E-17
  0.6375000        1.1213555E-17
  0.7800000        1.1225263E-17
  0.9225000        1.1223069E-17
   1.065000        1.1210929E-17
   1.207500        1.1198689E-17
   1.350000        1.1196139E-17
   1.492500        1.1207099E-17
   1.635000        1.1227116E-17
   1.777500        1.1246155E-17
   1.920000        1.1254683E-17
   2.062500        1.1249476E-17
   2.205000        1.1235649E-17
   2.347500        1.1223682E-17
   2.490000        1.1223187E-17
   2.632500        1.1237173E-17
   2.775000        1.1260235E-17
   2.917500        1.1281739E-17
   3.060000        1.1292124E-17
   3.202500        1.1288513E-17
   3.345000        1.1276307E-17
   3.487500        1.1265818E-17
   3.630000        1.1265980E-17
   3.772500        1.1278952E-17
   3.915000        1.1298834E-17
   4.057500        1.1315267E-17
   4.200000        1.1319732E-17
   4.342500        1.1310751E-17
   4.485000        1.1294851E-17
   4.627500        1.1282719E-17
   4.770000        1.1282870E-17
   4.912500        1.1296614E-17
   5.055000        1.1317355E-17
   5.197500        1.1334603E-17
   5.340000        1.1340274E-17
   5.482500        1.1333481E-17
   5.625000        1.1320955E-17
   5.767500        1.1312866E-17
   5.910000        1.1316612E-17
   6.052500        1.1332326E-17
   6.195000        1.1352825E-17
   6.337500        1.1367996E-17
   6.480000        1.1370956E-17
   6.622500        1.1362249E-17
   6.765000        1.1349538E-17
   6.907500        1.1342986E-17
   7.050000        1.1349131E-17
   7.192500        1.1366949E-17
   7.335000        1.1388499E-17
   7.477500        1.1403728E-17
   7.620000        1.1406540E-17
   7.762500        1.1398440E-17
   7.905000        1.1387557E-17
   8.047500        1.1383662E-17
   8.190000        1.1392199E-17
   8.332500        1.1410960E-17
   8.475000        1.1431419E-17
   8.617500        1.1443916E-17
   8.760000        1.1443539E-17
   8.902500        1.1433120E-17
   9.045000        1.1421519E-17
   9.187500        1.1418230E-17
   9.330000        1.1427561E-17
   9.472500        1.1445936E-17
   9.615000        1.1463976E-17
   9.757500        1.1472114E-17
   9.900000        1.1466369E-17
   10.04250        1.1450789E-17
   10.18500        1.1435076E-17
   10.32750        1.1428809E-17
   10.47000        1.1435752E-17
   10.61250        1.1451691E-17
   10.75500        1.1467088E-17
   10.89750        1.1472983E-17
   11.04000        1.1466536E-17
   11.18250        1.1452877E-17
   11.32500        1.1442092E-17
   11.46750        1.1443155E-17
   11.61000        1.1458453E-17
   11.75250        1.1482226E-17
   11.89500        1.1503866E-17
   12.03750        1.1514155E-17
   12.18000        1.1510672E-17
   12.32250        1.1499166E-17
   12.46500        1.1490035E-17
   12.60750        1.1492050E-17
   12.75000        1.1507077E-17
   12.89250        1.1528972E-17
   13.03500        1.1547307E-17
   13.17750        1.1553673E-17
   13.32000        1.1546775E-17
   13.46250        1.1533243E-17
   13.60500        1.1523650E-17
   13.74750        1.1526161E-17
   13.89000        1.1541594E-17
   14.03250        1.1562882E-17
   14.17500        1.1579261E-17
   14.31750        1.1582668E-17
   14.46000        1.1572528E-17
   14.60250        1.1556061E-17
   14.74500        1.1543954E-17
   14.88750        1.1544004E-17
   15.03000        1.1556548E-17
   15.17250        1.1574406E-17
   15.31500        1.1587340E-17
   15.45750        1.1588315E-17
   15.60000        1.1577786E-17
   15.74250        1.1563427E-17
   15.88500        1.1555491E-17
   16.02750        1.1560612E-17
   16.17000        1.1577782E-17
   16.31250        1.1598933E-17
   16.45500        1.1613751E-17
   16.59750        1.1615824E-17
   16.74000        1.1606409E-17
   16.88250        1.1593576E-17
   17.02500        1.1587271E-17
   17.16750        1.1593294E-17
   17.31000        1.1609828E-17
   17.45250        1.1628603E-17
   17.59500        1.1639962E-17
   17.73750        1.1638736E-17
   17.88000        1.1627388E-17
   18.02250        1.1614495E-17
   18.16500        1.1609541E-17
   18.30750        1.1617159E-17
   18.45000        1.1634331E-17
   18.59250        1.1652238E-17
   18.73500        1.1661638E-17
   18.87750        1.1658496E-17
   19.02000        1.1646466E-17
   19.16250        1.1634692E-17
   19.30500        1.1632289E-17
   19.44750        1.1642821E-17
   19.59000        1.1662130E-17
   19.73250        1.1680846E-17
   19.87500        1.1690039E-17
   20.01750        1.1686611E-17
   20.16000        1.1675137E-17
   20.30250        1.1665052E-17
   20.44500        1.1664876E-17
   20.58750        1.1676989E-17
   20.73000        1.1696120E-17
   20.87250        1.1712506E-17
   21.01500        1.1717813E-17
   21.15750        1.1710235E-17
   21.30000        1.1695693E-17
   21.44250        1.1684366E-17
   21.58500        1.1684635E-17
   21.72750        1.1698065E-17
   21.87000        1.1718478E-17
   22.01250        1.1735660E-17
   22.15500        1.1741495E-17
   22.29750        1.1734827E-17
   22.44000        1.1722111E-17
   22.58250        1.1713466E-17
   22.72500        1.1716488E-17
   22.86750        1.1731571E-17
   23.01000        1.1751561E-17
   23.15250        1.1765982E-17
   23.29500        1.1767299E-17
   23.43750        1.1755474E-17
   23.58000        1.1738051E-17
   23.72250        1.1725732E-17
   23.86500        1.1726054E-17
   24.00750        1.1738989E-17
   24.15000        1.1757056E-17
   24.29250        1.1769901E-17
   24.43500        1.1770567E-17
   24.57750        1.1759686E-17
   24.72000        1.1745091E-17
   24.86250        1.1737085E-17
   25.00500        1.1742209E-17
   25.14750        1.1759289E-17
   25.29000        1.1780098E-17
   25.43250        1.1794268E-17
   25.57500        1.1795473E-17
   25.71750        1.1785195E-17
   25.86000        1.1771798E-17
   26.00250        1.1765511E-17
   26.14500        1.1772306E-17
   26.28750        1.1790375E-17
   26.43000        1.1811276E-17
   26.57250        1.1825043E-17
   26.71500        1.1826160E-17
   26.85750        1.1816807E-17
   27.00000        1.1805442E-17
   27.14250        1.1801606E-17
   27.28500        1.1810099E-17
   27.42750        1.1828060E-17
   27.57000        1.1846682E-17
   27.71250        1.1856540E-17
   27.85500        1.1853270E-17
   27.99750        1.1840198E-17
   28.14000        1.1826332E-17
   28.28250        1.1820946E-17
   28.42500        1.1828038E-17
   28.56750        1.1844003E-17
   28.71000        1.1859913E-17
   28.85250        1.1866994E-17
   28.99500        1.1861978E-17
   29.13750        1.1849089E-17
   29.28000        1.1837467E-17
   29.42250        1.1835601E-17
   29.56500        1.1846174E-17
   29.70750        1.1864419E-17
   29.85000        1.1881014E-17
   29.99250        1.1887732E-17
   30.13500        1.1882435E-17
   30.27750        1.1870367E-17
   30.42000        1.1860958E-17
   30.56250        1.1862074E-17
   30.70500        1.1875201E-17
   30.84750        1.1894470E-17
   30.99000        1.1910163E-17
   31.13250        1.1914537E-17
   31.27500        1.1906500E-17
   31.41750        1.1892265E-17
   31.56000        1.1881592E-17
   31.70250        1.1881897E-17
   31.84500        1.1893770E-17
   31.98750        1.1910632E-17
   32.13000        1.1922746E-17
   32.27250        1.1923162E-17
   32.41500        1.1912001E-17
   32.55750        1.1896459E-17
   32.70000        1.1886516E-17
   32.84250        1.1888913E-17
   32.98500        1.1903026E-17
   33.12750        1.1921144E-17
   33.27000        1.1933007E-17
   33.41250        1.1931898E-17
   33.55500        1.1918635E-17
   33.69750        1.1901069E-17
   33.84000        1.1889381E-17
   33.98250        1.1890009E-17
   34.12500        1.1901854E-17
   34.26750        1.1917038E-17
   34.41000        1.1925766E-17
   34.55250        1.1922354E-17
   34.69500        1.1908789E-17
   34.83750        1.1893673E-17
   34.98000        1.1887155E-17
   35.12250        1.1894904E-17
   35.26500        1.1914717E-17
   35.40750        1.1937814E-17
   35.55000        1.1954031E-17
   35.69250        1.1957814E-17
   35.83500        1.1951422E-17
   35.97750        1.1943448E-17
   36.12000        1.1943549E-17
   36.26250        1.1956575E-17
   36.40500        1.1979618E-17
   36.54750        1.2003732E-17
   36.69000        1.2019275E-17
   36.83250        1.2021655E-17
   36.97500        1.2014012E-17
   37.11750        1.2005240E-17
   37.26000        1.2004566E-17
   37.40250        1.2015942E-17
   37.54500        1.2035638E-17
   37.68750        1.2054462E-17
   37.83000        1.2063266E-17
   37.97250        1.2058408E-17
   38.11500        1.2043892E-17
   38.25750        1.2028926E-17
   38.40000        1.2022384E-17
   38.54250        1.2027525E-17
   38.68500        1.2040149E-17
   38.82750        1.2051265E-17
   38.97000        1.2052651E-17
   39.11250        1.2041903E-17
   39.25500        1.2023946E-17
   39.39750        1.2008078E-17
   39.54000        1.2002378E-17
   39.68250        1.2008850E-17
   39.82500        1.2022257E-17
   39.96750        1.2033332E-17
   40.11000        1.2034426E-17
   40.25250        1.2024160E-17
   40.39500        1.2008264E-17
   40.53750        1.1996097E-17
   40.68000        1.1994968E-17
   40.82250        1.2005685E-17
   40.96500        1.2022047E-17
   41.10750        1.2034581E-17
   41.25000        1.2036255E-17
   41.39250        1.2026718E-17
   41.53500        1.2012498E-17
   41.67750        1.2003022E-17
   41.82000        1.2004891E-17
   41.96250        1.2017866E-17
   42.10500        1.2035018E-17
   42.24750        1.2046953E-17
   42.39000        1.2047575E-17
   42.53250        1.2037864E-17
   42.67500        1.2025387E-17
   42.81750        1.2019804E-17
   42.96000        1.2027045E-17
   43.10250        1.2045695E-17
   43.24500        1.2067764E-17
   43.38750        1.2083399E-17
   43.53000        1.2086723E-17
   43.67250        1.2079278E-17
   43.81500        1.2069003E-17
   43.95750        1.2065364E-17
   44.10000        1.2073560E-17
   44.24250        1.2091318E-17
   44.38500        1.2110204E-17
   44.52750        1.2120697E-17
   44.67000        1.2117959E-17
   44.81250        1.2104837E-17
   44.95500        1.2090257E-17
   45.09750        1.2083975E-17
   45.24000        1.2090796E-17
   45.38250        1.2107745E-17
   45.52500        1.2125870E-17
   45.66750        1.2135604E-17
   45.81000        1.2132481E-17
   45.95250        1.2119759E-17
   46.09500        1.2106411E-17
   46.23750        1.2101679E-17
   46.38000        1.2109488E-17
   46.52250        1.2126062E-17
   46.66500        1.2142178E-17
   46.80750        1.2148706E-17
   46.95000        1.2142093E-17
   47.09250        1.2126519E-17
   47.23500        1.2111412E-17
   47.37750        1.2105847E-17
   47.52000        1.2113172E-17
   47.66250        1.2129086E-17
   47.80500        1.2144302E-17
   47.94750        1.2150170E-17
   48.09000        1.2143877E-17
   48.23250        1.2130109E-17
   48.37500        1.2118175E-17
   48.51750        1.2116384E-17
   48.66000        1.2127035E-17
   48.80250        1.2145061E-17
   48.94500        1.2161111E-17
   49.08750        1.2167196E-17
   49.23000        1.2161492E-17
   49.37250        1.2149391E-17
   49.51500        1.2140196E-17
   49.65750        1.2141473E-17
   49.80000        1.2154452E-17
   49.94250        1.2173285E-17
   50.08500        1.2188569E-17
   50.22750        1.2193004E-17
   50.37000        1.2185759E-17
   50.51250        1.2172923E-17
   50.65500        1.2163765E-17
   50.79750        1.2165111E-17
   50.94000        1.2177211E-17
   51.08250        1.2193634E-17
   51.22500        1.2205209E-17
   51.36750        1.2205635E-17
   51.51000        1.2195337E-17
   51.65250        1.2181231E-17
   51.79500        1.2172529E-17
   51.93750        1.2175123E-17
   52.08000        1.2187977E-17
   52.22250        1.2203689E-17
   52.36500        1.2212936E-17
   52.50750        1.2210094E-17
   52.65000        1.2196656E-17
   52.79250        1.2180359E-17
   52.93500        1.2170556E-17
   53.07750        1.2172607E-17
   53.22000        1.2184702E-17
   53.36250        1.2199026E-17
   53.50500        1.2206566E-17
   53.64750        1.2202671E-17
   53.79000        1.2189952E-17
   53.93250        1.2176787E-17
   54.07500        1.2172277E-17
   54.21750        1.2180707E-17
   54.36000        1.2198847E-17
   54.50250        1.2217764E-17
   54.64500        1.2228060E-17
   54.78750        1.2225437E-17
   54.93000        1.2213211E-17
   55.07250        1.2200300E-17
   55.21500        1.2195859E-17
   55.35750        1.2203794E-17
   55.50000        1.2220460E-17
   55.64250        1.2236921E-17
   55.78500        1.2244403E-17
   55.92750        1.2239674E-17
   56.07000        1.2227079E-17
   56.21250        1.2216001E-17
   56.35500        1.2215252E-17
   56.49750        1.2227758E-17
   56.64000        1.2248733E-17
   56.78250        1.2268449E-17
   56.92500        1.2277945E-17
   57.06750        1.2274290E-17
   57.21000        1.2262225E-17
   57.35250        1.2251240E-17
   57.49500        1.2249846E-17
   57.63750        1.2260469E-17
   57.78000        1.2278037E-17
   57.92250        1.2293087E-17
   58.06500        1.2297492E-17
   58.20750        1.2289374E-17
   58.35000        1.2274230E-17
   58.49250        1.2261618E-17
   58.63500        1.2259407E-17
   58.77750        1.2269045E-17
   58.92000        1.2284712E-17
   59.06250        1.2296845E-17
   59.20500        1.2297913E-17
   59.34750        1.2286965E-17
   59.49000        1.2270233E-17
   59.63250        1.2257432E-17
   59.77500        1.2255984E-17
   59.91750        1.2266671E-17
   60.06000        1.2283281E-17
   60.20250        1.2296439E-17
   60.34500        1.2299290E-17
   60.48750        1.2291579E-17
   60.63000        1.2279689E-17
   60.77250        1.2272626E-17
   60.91500        1.2276423E-17
   61.05750        1.2290367E-17
   61.20000        1.2307337E-17
   61.34250        1.2318075E-17
   61.48500        1.2316788E-17
   61.62750        1.2304694E-17
   61.77000        1.2289371E-17
   61.91250        1.2280281E-17
   62.05500        1.2283181E-17
   62.19750        1.2296770E-17
   62.34000        1.2313598E-17
   62.48250        1.2324654E-17
   62.62500        1.2324850E-17
   62.76750        1.2316056E-17
   62.91000        1.2305867E-17
   63.05250        1.2302841E-17
   63.19500        1.2311124E-17
   63.33750        1.2327742E-17
   63.48000        1.2344238E-17
   63.62250        1.2351699E-17
   63.76500        1.2346129E-17
   63.90750        1.2330933E-17
   64.05000        1.2314976E-17
   64.19250        1.2307364E-17
   64.33500        1.2312068E-17
   64.47750        1.2325640E-17
   64.62000        1.2339381E-17
   64.76250        1.2344658E-17
   64.90500        1.2338170E-17
   65.04750        1.2323955E-17
   65.19000        1.2310955E-17
   65.33250        1.2307552E-17
   65.47500        1.2316442E-17
   65.61750        1.2332904E-17
   65.76000        1.2347572E-17
   65.90250        1.2352056E-17
   66.04500        1.2344037E-17
   66.18750        1.2328758E-17
   66.33000        1.2315992E-17
   66.47250        1.2314282E-17
   66.61500        1.2325889E-17
   66.75750        1.2345481E-17
   66.90000        1.2363338E-17
   67.04250        1.2371160E-17
   67.18500        1.2366990E-17
   67.32750        1.2356300E-17
   67.47000        1.2348601E-17
   67.61250        1.2351623E-17
   67.75500        1.2366577E-17
   67.89750        1.2387348E-17
   68.04000        1.2404114E-17
   68.18250        1.2409215E-17
   68.32500        1.2401739E-17
   68.46750        1.2388076E-17
   68.61000        1.2378090E-17
   68.75250        1.2379217E-17
   68.89500        1.2392018E-17
   69.03750        1.2409840E-17
   69.18000        1.2422799E-17
   69.32250        1.2423665E-17
   69.46500        1.2412126E-17
   69.60750        1.2394905E-17
   69.75000        1.2381676E-17
   69.89250        1.2379264E-17
   70.03500        1.2387640E-17
   70.17750        1.2400098E-17
   70.32000        1.2407497E-17
   70.46250        1.2403950E-17
   70.60500        1.2390548E-17
   70.74750        1.2374811E-17
   70.89000        1.2366242E-17
   71.03250        1.2370625E-17
   71.17500        1.2386527E-17
   71.31750        1.2406095E-17
   71.46000        1.2419673E-17
   71.60250        1.2421441E-17
   71.74500        1.2412705E-17
   71.88750        1.2400872E-17
   72.03000        1.2394781E-17
   72.17250        1.2399243E-17
   72.31500        1.2412106E-17
   72.45750        1.2425627E-17
   72.60000        1.2431305E-17
   72.74250        1.2425204E-17
   72.88500        1.2410524E-17
   73.02750        1.2395834E-17
   73.17000        1.2389998E-17
   73.31250        1.2396860E-17
   73.45500        1.2412901E-17
   73.59750        1.2429298E-17
   73.74000        1.2437137E-17
   73.88250        1.2432670E-17
   74.02500        1.2419425E-17
   74.16750        1.2405922E-17
   74.31000        1.2400392E-17
   74.45250        1.2405724E-17
   74.59500        1.2417692E-17
   74.73750        1.2427577E-17
   74.88000        1.2427573E-17
   75.02250        1.2415706E-17
   75.16500        1.2397259E-17
   75.30750        1.2381779E-17
   75.45000        1.2377456E-17
   75.59250        1.2386242E-17
   75.73500        1.2402652E-17
   75.87750        1.2417008E-17
   76.02000        1.2421181E-17
   76.16250        1.2413409E-17
   76.30500        1.2399277E-17
   76.44750        1.2388297E-17
   76.59000        1.2388136E-17
   76.73250        1.2399970E-17
   76.87500        1.2417779E-17
   77.01750        1.2432008E-17
   77.16000        1.2435385E-17
   77.30250        1.2427381E-17
   77.44500        1.2414606E-17
   77.58750        1.2406872E-17
   77.73000        1.2411278E-17
   77.87250        1.2427854E-17
   78.01500        1.2449417E-17
   78.15750        1.2465710E-17
   78.30000        1.2469393E-17
   78.44250        1.2460293E-17
   78.58500        1.2445396E-17
   78.72750        1.2434588E-17
   78.87000        1.2434734E-17
   79.01250        1.2445631E-17
   79.15500        1.2460260E-17
   79.29750        1.2469158E-17
   79.44000        1.2466256E-17
   79.58250        1.2452643E-17
   79.72500        1.2435995E-17
   79.86750        1.2425992E-17
   80.01000        1.2428506E-17
   80.15250        1.2442042E-17
   80.29500        1.2458579E-17
   80.43750        1.2468321E-17
   80.58000        1.2465485E-17
   80.72250        1.2451693E-17
   80.86500        1.2434923E-17
   81.00750        1.2424697E-17
   81.15000        1.2426416E-17
   81.29250        1.2438231E-17
   81.43500        1.2452321E-17
   81.57750        1.2459753E-17
   81.72000        1.2455964E-17
   81.86250        1.2443521E-17
   82.00500        1.2430510E-17
   82.14750        1.2425541E-17
   82.29000        1.2432399E-17
   82.43250        1.2447621E-17
   82.57500        1.2462459E-17
   82.71750        1.2468066E-17
   82.86000        1.2460790E-17
   83.00250        1.2444362E-17
   83.14500        1.2427691E-17
   83.28750        1.2419588E-17
   83.43000        1.2423601E-17
   83.57250        1.2436086E-17
   83.71500        1.2448625E-17
   83.85750        1.2453310E-17
   84.00000        1.2447655E-17
   84.14250        1.2436134E-17
   84.28500        1.2427414E-17
   84.42750        1.2428955E-17
   84.57000        1.2442288E-17
   84.71250        1.2461849E-17
   84.85500        1.2478137E-17
   84.99750        1.2483304E-17
   85.14000        1.2475828E-17
   85.28250        1.2461431E-17
   85.42500        1.2449680E-17
   85.56750        1.2448307E-17
   85.71000        1.2458651E-17
   85.85250        1.2474973E-17
   85.99500        1.2488038E-17
   86.13750        1.2490786E-17
   86.28000        1.2482663E-17
   86.42250        1.2469958E-17
   86.56500        1.2461948E-17
   86.70750        1.2465169E-17
   86.85000        1.2479294E-17
   86.99250        1.2497145E-17
   87.13500        1.2508868E-17
   87.27750        1.2507807E-17
   87.42000        1.2494517E-17
   87.56250        1.2476536E-17
   87.70500        1.2463993E-17
   87.84750        1.2463685E-17
   87.99000        1.2475149E-17
   88.13250        1.2491075E-17
   88.27500        1.2501792E-17
   88.41750        1.2501117E-17
   88.56000        1.2490046E-17
   88.70250        1.2476072E-17
   88.84500        1.2468543E-17
   88.98750        1.2472877E-17
   89.13000        1.2487135E-17
   89.27250        1.2503034E-17
   89.41500        1.2510821E-17
   89.55750        1.2505089E-17
   89.70000        1.2488054E-17
   89.84250        1.2468326E-17
   89.98500        1.2455897E-17
   90.12750        1.2456355E-17
   90.27000        1.2467743E-17
   90.41250        1.2481956E-17
   90.55500        1.2489746E-17
   90.69750        1.2486355E-17
   90.84000        1.2474345E-17
   90.98250        1.2461961E-17
   91.12500        1.2458051E-17
   91.26750        1.2466598E-17
   91.41000        1.2484228E-17
   91.55250        1.2502148E-17
   91.69500        1.2511385E-17
   91.83750        1.2508136E-17
   91.98000        1.2496028E-17
   92.12250        1.2483918E-17
   92.26500        1.2480575E-17
   92.40750        1.2489437E-17
   92.55000        1.2506609E-17
   92.69250        1.2523244E-17
   92.83500        1.2530895E-17
   92.97750        1.2526547E-17
   93.12000        1.2514320E-17
   93.26250        1.2502840E-17
   93.40500        1.2499904E-17
   93.54750        1.2507684E-17
   93.69000        1.2521408E-17
   93.83250        1.2532308E-17
   93.97500        1.2533037E-17
   94.11750        1.2522266E-17
   94.26000        1.2505651E-17
   94.40250        1.2492555E-17
   94.54500        1.2490507E-17
   94.68750        1.2500723E-17
   94.83000        1.2517397E-17
   94.97250        1.2531184E-17
   95.11500        1.2534778E-17
   95.25750        1.2527196E-17
   95.40000        1.2514214E-17
   95.54250        1.2504684E-17
   95.68500        1.2505010E-17
   95.82750        1.2515141E-17
   95.97000        1.2528541E-17
   96.11250        1.2536179E-17
   96.25500        1.2532115E-17
   96.39750        1.2517302E-17
   96.54000        1.2499247E-17
   96.68250        1.2487700E-17
   96.82500        1.2488929E-17
   96.96750        1.2502025E-17
   97.11000        1.2519443E-17
   97.25250        1.2531488E-17
   97.39500        1.2532044E-17
   97.53750        1.2522123E-17
   97.68000        1.2509087E-17
   97.82250        1.2502054E-17
   97.96500        1.2506261E-17
   98.10750        1.2519796E-17
   98.25000        1.2534708E-17
   98.39250        1.2541832E-17
   98.53500        1.2536427E-17
   98.67750        1.2521198E-17
   98.82000        1.2504884E-17
   98.96250        1.2497181E-17
   99.10500        1.2503048E-17
   99.24750        1.2519781E-17
   99.39000        1.2538618E-17