  -30.00000        4.8965759E-18
  -29.85750        4.9019232E-18
  -29.71500        4.9116996E-18
  -29.57250        4.9243174E-18
  -29.43000        4.9378299E-18
  -29.28750        4.9503033E-18
  -29.14500        4.9601960E-18
  -29.00250        4.9666418E-18
  -28.86000        4.9696043E-18
  -28.71750        4.9698595E-18
  -28.57500        4.9688148E-18
  -28.43250        4.9682056E-18
  -28.29000        4.9697218E-18
  -28.14750        4.9746501E-18
  -28.00500        4.9835982E-18
  -27.86250        4.9963533E-18
  -27.72000        5.0119159E-18
  -27.57750        5.0286870E-18
  -27.43500        5.0447868E-18
  -27.29250        5.0584245E-18
  -27.15000        5.0682601E-18
  -27.00750        5.0736719E-18
  -26.86500        5.0748838E-18
  -26.72250        5.0729213E-18
  -26.58000        5.0694074E-18
  -26.43750        5.0662426E-18
  -26.29500        5.0652272E-18
  -26.15250        5.0677080E-18
  -26.01000        5.0743138E-18
  -25.86750        5.0848380E-18
  -25.72500        5.0982897E-18
  -25.58250        5.1130941E-18
  -25.44000        5.1274168E-18
  -25.29750        5.1395329E-18
  -25.15500        5.1481761E-18
  -25.01250        5.1527951E-18
  -24.87000        5.1536574E-18
  -24.72750        5.1517975E-18
  -24.58500        5.1487977E-18
  -24.44250        5.1464688E-18
  -24.30000        5.1464733E-18
  -24.15750        5.1499934E-18
  -24.01500        5.1574819E-18
  -23.87250        5.1685797E-18
  -23.73000        5.1821815E-18
  -23.58750        5.1966654E-18
  -23.44500        5.2102208E-18
  -23.30250        5.2212137E-18
  -23.16000        5.2285181E-18
  -23.01750        5.2317437E-18
  -22.87500        5.2313168E-18
  -22.73250        5.2283957E-18
  -22.59000        5.2246378E-18
  -22.44750        5.2218651E-18
  -22.30500        5.2216938E-18
  -22.16250        5.2252094E-18
  -22.02000        5.2327433E-18
  -21.87750        5.2438064E-18
  -21.73500        5.2571886E-18
  -21.59250        5.2712051E-18
  -21.45000        5.2840405E-18
  -21.30750        5.2941160E-18
  -21.16500        5.3004088E-18
  -21.02250        5.3026550E-18
  -20.88000        5.3014055E-18
  -20.73750        5.2979049E-18
  -20.59500        5.2938405E-18
  -20.45250        5.2909996E-18
  -20.31000        5.2909032E-18
  -20.16750        5.2944981E-18
  -20.02500        5.3019639E-18
  -19.88250        5.3126742E-18
  -19.74000        5.3253259E-18
  -19.59750        5.3382084E-18
  -19.45500        5.3495549E-18
  -19.31250        5.3579144E-18
  -19.17000        5.3624535E-18
  -19.02750        5.3631376E-18
  -18.88500        5.3607433E-18
  -18.74250        5.3567083E-18
  -18.60000        5.3528388E-18
  -18.45750        5.3509458E-18
  -18.31500        5.3524711E-18
  -18.17250        5.3581902E-18
  -18.03000        5.3680461E-18
  -17.88750        5.3811453E-18
  -17.74500        5.3959241E-18
  -17.60250        5.4104486E-18
  -17.46000        5.4227918E-18
  -17.31750        5.4314135E-18
  -17.17500        5.4354654E-18
  -17.03250        5.4349625E-18
  -16.89000        5.4307819E-18
  -16.74750        5.4244912E-18
  -16.60500        5.4180371E-18
  -16.46250        5.4133603E-18
  -16.32000        5.4120128E-18
  -16.17750        5.4148566E-18
  -16.03500        5.4218984E-18
  -15.89250        5.4323011E-18
  -15.75000        5.4445595E-18
  -15.60750        5.4568112E-18
  -15.46500        5.4672122E-18
  -15.32250        5.4743086E-18
  -15.18000        5.4773253E-18
  -15.03750        5.4763207E-18
  -14.89500        5.4721687E-18
  -14.75250        5.4663805E-18
  -14.61000        5.4607933E-18
  -14.46750        5.4571905E-18
  -14.32500        5.4569366E-18
  -14.18250        5.4606907E-18
  -14.04000        5.4682685E-18
  -13.89750        5.4786749E-18
  -13.75500        5.4903005E-18
  -13.61250        5.5012470E-18
  -13.47000        5.5097082E-18
  -13.32750        5.5143342E-18
  -13.18500        5.5145025E-18
  -13.04250        5.5104448E-18
  -12.90000        5.5032074E-18
  -12.75750        5.4944480E-18
  -12.61500        5.4861162E-18
  -12.47250        5.4800761E-18
  -12.33000        5.4777435E-18
  -12.18750        5.4798184E-18
  -12.04500        5.4861584E-18
  -11.90250        5.4958169E-18
  -11.76000        5.5072506E-18
  -11.61750        5.5186430E-18
  -11.47500        5.5282784E-18
  -11.33250        5.5348975E-18
  -11.19000        5.5379494E-18
  -11.04750        5.5376987E-18
  -10.90500        5.5351577E-18
  -10.76250        5.5318717E-18
  -10.62000        5.5295870E-18
  -10.47750        5.5298819E-18
  -10.33500        5.5338309E-18
  -10.19250        5.5417631E-18
  -10.05000        5.5531765E-18
  -9.907500        5.5668052E-18
  -9.765000        5.5808552E-18
  -9.622500        5.5933370E-18
  -9.480000        5.6024517E-18
  -9.337500        5.6069404E-18
  -9.195000        5.6063353E-18
  -9.052500        5.6010492E-18
  -8.910000        5.5923009E-18
  -8.767500        5.5818756E-18
  -8.625000        5.5717782E-18
  -8.482500        5.5638476E-18
  -8.340000        5.5594139E-18
  -8.197500        5.5590570E-18
  -8.055000        5.5625220E-18
  -7.912500        5.5688012E-18
  -7.770000        5.5763624E-18
  -7.627500        5.5834729E-18
  -7.485000        5.5885666E-18
  -7.342500        5.5905651E-18
  -7.200000        5.5891031E-18
  -7.057500        5.5846065E-18
  -6.915000        5.5782050E-18
  -6.772500        5.5715044E-18
  -6.630000        5.5662489E-18
  -6.487500        5.5639642E-18
  -6.345000        5.5656351E-18
  -6.202500        5.5714973E-18
  -6.060000        5.5809872E-18
  -5.917500        5.5928506E-18
  -5.775000        5.6053960E-18
  -5.632500        5.6168310E-18
  -5.490000        5.6256194E-18
  -5.347500        5.6307801E-18
  -5.205000        5.6320755E-18
  -5.062500        5.6300477E-18
  -4.920000        5.6258998E-18
  -4.777500        5.6212444E-18
  -4.635000        5.6177727E-18
  -4.492500        5.6168996E-18
  -4.350000        5.6194709E-18
  -4.207500        5.6255842E-18
  -4.065000        5.6345633E-18
  -3.922500        5.6450974E-18
  -3.780000        5.6555128E-18
  -3.637500        5.6641246E-18
  -3.495000        5.6695931E-18
  -3.352500        5.6712074E-18
  -3.210000        5.6690414E-18
  -3.067500        5.6639505E-18
  -2.925000        5.6574046E-18
  -2.782500        5.6511999E-18
  -2.640000        5.6471025E-18
  -2.497500        5.6464966E-18
  -2.355000        5.6501018E-18
  -2.212500        5.6578223E-18
  -2.070000        5.6687535E-18
  -1.927500        5.6813498E-18
  -1.785000        5.6937236E-18
  -1.642500        5.7040150E-18
  -1.500000        5.7107607E-18
  -1.357500        5.7131864E-18
  -1.215000        5.7113599E-18
  -1.072500        5.7061748E-18
 -0.9300000        5.6991656E-18
 -0.7875000        5.6921975E-18
 -0.6450000        5.6870872E-18
 -0.5025000        5.6852430E-18
 -0.3600000        5.6873887E-18
 -0.2175000        5.6934250E-18
 -7.5000003E-02    5.7024570E-18
  6.7500003E-02    5.7129742E-18
  0.2100000        5.7231560E-18
  0.3525000        5.7312334E-18
  0.4950000        5.7358470E-18
  0.6375000        5.7363197E-18
  0.7800000        5.7327996E-18
  0.9225000        5.7262347E-18
   1.065000        5.7181838E-18
   1.207500        5.7105022E-18
   1.350000        5.7049671E-18
   1.492500        5.7029198E-18
   1.635000        5.7049969E-18
   1.777500        5.7110105E-18
   1.920000        5.7199969E-18
   2.062500        5.7304198E-18
   2.205000        5.7404879E-18
   2.347500        5.7485128E-18
   2.490000        5.7532471E-18
   2.632500        5.7541297E-18
   2.775000        5.7513947E-18
   2.917500        5.7460229E-18
   3.060000        5.7395461E-18
   3.202500        5.7337377E-18
   3.345000        5.7302548E-18
   3.487500        5.7302987E-18
   3.630000        5.7343709E-18
   3.772500        5.7421662E-18
   3.915000        5.7526387E-18
   4.057500        5.7642209E-18
   4.200000        5.7751459E-18
   4.342500        5.7838160E-18
   4.485000        5.7891244E-18
   4.627500        5.7906791E-18
   4.770000        5.7888717E-18
   4.912500        5.7847929E-18
   5.055000        5.7800039E-18
   5.197500        5.7762175E-18
   5.340000        5.7749474E-18
   5.482500        5.7771944E-18
   5.625000        5.7832357E-18
   5.767500        5.7925498E-18
   5.910000        5.8039082E-18
   6.052500        5.8156099E-18
   6.195000        5.8258198E-18
   6.337500        5.8329373E-18
   6.480000        5.8359280E-18
   6.622500        5.8345387E-18
   6.765000        5.8293560E-18
   6.907500        5.8216947E-18
   7.050000        5.8133406E-18
   7.192500        5.8062032E-18
   7.335000        5.8019486E-18
   7.477500        5.8016823E-18
   7.620000        5.8057470E-18
   7.762500        5.8136681E-18
   7.905000        5.8242564E-18
   8.047500        5.8358469E-18
   8.190000        5.8466296E-18
   8.332500        5.8550073E-18
   8.475000        5.8599121E-18
   8.617500        5.8610106E-18
   8.760000        5.8587648E-18
   8.902500        5.8543232E-18
   9.045000        5.8492712E-18
   9.187500        5.8452883E-18
   9.330000        5.8437928E-18
   9.472500        5.8456420E-18
   9.615000        5.8509562E-18
   9.757500        5.8590948E-18
   9.900000        5.8687923E-18
   10.04250        5.8784165E-18
   10.18500        5.8863008E-18
   10.32750        5.8910794E-18
   10.47000        5.8919686E-18
   10.61250        5.8889283E-18
   10.75500        5.8826839E-18
   10.89750        5.8745925E-18
   11.04000        5.8663810E-18
   11.18250        5.8598041E-18
   11.32500        5.8562915E-18
   11.46750        5.8566604E-18
   11.61000        5.8609514E-18
   11.75250        5.8684287E-18
   11.89500        5.8777403E-18
   12.03750        5.8872078E-18
   12.18000        5.8951793E-18
   12.32250        5.9003691E-18
   12.46500        5.9021227E-18
   12.60750        5.9005448E-18
   12.75000        5.8964755E-18
   12.89250        5.8913214E-18
   13.03500        5.8867690E-18
   13.17750        5.8844471E-18
   13.32000        5.8855869E-18
   13.46250        5.8907614E-18
   13.60500        5.8997445E-18
   13.74750        5.9115397E-18
   13.89000        5.9245550E-18
   14.03250        5.9369180E-18
   14.17500        5.9468463E-18
   14.31750        5.9530092E-18
   14.46000        5.9548017E-18
   14.60250        5.9524612E-18
   14.74500        5.9470225E-18
   14.88750        5.9401081E-18
   15.03000        5.9336039E-18
   15.17250        5.9292947E-18
   15.31500        5.9285135E-18
   15.45750        5.9318913E-18
   15.60000        5.9392362E-18
   15.74250        5.9495751E-18
   15.88500        5.9613414E-18
   16.02750        5.9726841E-18
   16.17000        5.9818335E-18
   16.31250        5.9874550E-18
   16.45500        5.9889237E-18
   16.59750        5.9864471E-18
   16.74000        5.9810262E-18
   16.88250        5.9742441E-18
   17.02500        5.9679419E-18
   17.16750        5.9638378E-18
   17.31000        5.9631798E-18
   17.45250        5.9665001E-18
   17.59500        5.9735175E-18
   17.73750        5.9832021E-18
   17.88000        5.9939889E-18
   18.02250        6.0040901E-18
   18.16500        6.0118474E-18
   18.30750        6.0160639E-18
   18.45000        6.0162368E-18
   18.59250        6.0126667E-18
   18.73500        6.0063991E-18
   18.87750        5.9990219E-18
   19.02000        5.9923437E-18
   19.16250        5.9880270E-18
   19.30500        5.9872491E-18
   19.44750        5.9904627E-18
   19.59000        5.9973105E-18
   19.73250        6.0067093E-18
   19.87500        6.0170813E-18
   20.01750        6.0266845E-18
   20.16000        6.0339649E-18
   20.30250        6.0378696E-18
   20.44500        6.0380483E-18
   20.58750        6.0349137E-18
   20.73000        6.0295569E-18
   20.87250        6.0235272E-18
   21.01500        6.0185182E-18
   21.15750        6.0160279E-18
   21.30000        6.0170474E-18
   21.44250        6.0218534E-18
   21.58500        6.0299374E-18
   21.72750        6.0401084E-18
   21.87000        6.0507311E-18
   22.01250        6.0600674E-18
   22.15500        6.0666382E-18
   22.29750        6.0695254E-18
   22.44000        6.0685613E-18
   22.58250        6.0643535E-18
   22.72500        6.0581558E-18
   22.86750        6.0516112E-18
   23.01000        6.0464210E-18
   23.15250        6.0440098E-18
   23.29500        6.0452435E-18
   23.43750        6.0502546E-18
   23.58000        6.0584160E-18
   23.72250        6.0684513E-18
   23.86500        6.0786852E-18
   24.00750        6.0873772E-18
   24.15000        6.0930744E-18
   24.29250        6.0949120E-18
   24.43500        6.0927969E-18
   24.57750        6.0874318E-18
   24.72000        6.0801683E-18
   24.86250        6.0727320E-18
   25.00500        6.0668681E-18
   25.14750        6.0639924E-18
   25.29000        6.0649176E-18
   25.43250        6.0697029E-18
   25.57500        6.0776603E-18
   25.71750        6.0874996E-18
   25.86000        6.0975913E-18
   26.00250        6.1062895E-18
   26.14500        6.1122588E-18
   26.28750        6.1147412E-18
   26.43000        6.1137113E-18
   26.57250        6.1098894E-18
   26.71500        6.1045933E-18
   26.85750        6.0994718E-18
   27.00000        6.0961565E-18
   27.14250        6.0959162E-18
   27.28500        6.0993891E-18
   27.42750        6.1064475E-18
   27.57000        6.1162251E-18
   27.71250        6.1273023E-18
   27.85500        6.1379953E-18
   27.99750        6.1466985E-18
   28.14000        6.1522030E-18
   28.28250        6.1539276E-18
   28.42500        6.1520338E-18
   28.56750        6.1473892E-18
   28.71000        6.1413975E-18
   28.85250        6.1357222E-18
   28.99500        6.1319561E-18
   29.13750        6.1312935E-18
   29.28000        6.1342825E-18
   29.42250        6.1407031E-18
   29.56500        6.1496077E-18
   29.70750        6.1595136E-18
   29.85000        6.1687155E-18
   29.99250        6.1756419E-18
   30.13500        6.1791802E-18
   30.27750        6.1789056E-18
   30.42000        6.1751568E-18
   30.56250        6.1689654E-18
   30.70500        6.1618384E-18
   30.84750        6.1554579E-18
   30.99000        6.1513493E-18
   31.13250        6.1505784E-18
   31.27500        6.1535384E-18
   31.41750        6.1598676E-18
   31.56000        6.1685088E-18
   31.70250        6.1779146E-18
   31.84500        6.1863597E-18
   31.98750        6.1922931E-18
   32.13000        6.1946667E-18
   32.27250        6.1931637E-18
   32.41500        6.1882718E-18
   32.55750        6.1811898E-18
   32.70000        6.1735819E-18
   32.84250        6.1672419E-18
   32.98500        6.1637339E-18
   33.12750        6.1640842E-18
   33.27000        6.1685861E-18
   33.41250        6.1767471E-18
   33.55500        6.1873838E-18
   33.69750        6.1988473E-18
   33.84000        6.2093297E-18
   33.98250        6.2172123E-18
   34.12500        6.2213697E-18
   34.26750        6.2213958E-18
   34.41000        6.2176842E-18
   34.55250        6.2113517E-18
   34.69500        6.2040134E-18
   34.83750        6.1974510E-18
   34.98000        6.1932485E-18
   35.12250        6.1924747E-18
   35.26500        6.1954765E-18
   35.40750        6.2018288E-18
   35.55000        6.2104439E-18
   35.69250        6.2198101E-18
   35.83500        6.2283040E-18
   35.97750        6.2345157E-18
   36.12000        6.2375258E-18
   36.26250        6.2370795E-18
   36.40500        6.2336364E-18
   36.54750        6.2282812E-18
   36.69000        6.2225125E-18
   36.83250        6.2179423E-18
   36.97500        6.2159695E-18
   37.11750        6.2174840E-18
   37.26000        6.2226775E-18
   37.40250        6.2309973E-18
   37.54500        6.2412626E-18
   37.68750        6.2519154E-18
   37.83000        6.2613482E-18
   37.97250        6.2682411E-18
   38.11500        6.2718265E-18
   38.25750        6.2720345E-18
   38.40000        6.2694930E-18
   38.54250        6.2653881E-18
   38.68500        6.2612163E-18
   38.82750        6.2584828E-18
   38.97000        6.2583972E-18
   39.11250        6.2616199E-18
   39.25500        6.2681187E-18
   39.39750        6.2771548E-18
   39.54000        6.2874143E-18
   39.68250        6.2972669E-18
   39.82500        6.3050965E-18
   39.96750        6.3096427E-18
   40.11000        6.3102701E-18
   40.25250        6.3071078E-18
   40.39500        6.3010247E-18
   40.53750        6.2934478E-18
   40.68000        6.2860681E-18
   40.82250        6.2804974E-18
   40.96500        6.2779481E-18
   41.10750        6.2790023E-18
   41.25000        6.2835013E-18
   41.39250        6.2905853E-18
   41.53500        6.2988567E-18
   41.67750        6.3066545E-18
   41.82000        6.3123799E-18
   41.96250        6.3148180E-18
   42.10500        6.3133948E-18
   42.24750        6.3083093E-18
   42.39000        6.3005102E-18
   42.53250        6.2915146E-18
   42.67500        6.2831072E-18
   42.81750        6.2769782E-18
   42.96000        6.2743858E-18
   43.10250        6.2759157E-18
   43.24500        6.2813833E-18
   43.38750        6.2898942E-18
   43.53000        6.3000437E-18
   43.67250        6.3102048E-18
   43.81500        6.3188451E-18
   43.95750        6.3248182E-18
   44.10000        6.3275752E-18
   44.24250        6.3272575E-18
   44.38500        6.3246639E-18
   44.52750        6.3210810E-18
   44.67000        6.3180175E-18
   44.81250        6.3168834E-18
   44.95500        6.3186834E-18
   45.09750        6.3237892E-18
   45.24000        6.3318517E-18
   45.38250        6.3418676E-18
   45.52500        6.3523869E-18
   45.66750        6.3618221E-18
   45.81000        6.3687717E-18
   45.95250        6.3723041E-18
   46.09500        6.3721313E-18
   46.23750        6.3686559E-18
   46.38000        6.3628792E-18
   46.52250        6.3562060E-18
   46.66500        6.3501746E-18
   46.80750        6.3461648E-18
   46.95000        6.3451354E-18
   47.09250        6.3474354E-18
   47.23500        6.3527289E-18
   47.37750        6.3600598E-18
   47.52000        6.3680458E-18
   47.66250        6.3751716E-18
   47.80500        6.3801140E-18
   47.94750        6.3820351E-18
   48.09000        6.3807608E-18
   48.23250        6.3768259E-18
   48.37500        6.3713529E-18
   48.51750        6.3658161E-18
   48.66000        6.3617415E-18
   48.80250        6.3603948E-18
   48.94500        6.3625351E-18
   49.08750        6.3682621E-18
   49.23000        6.3769860E-18
   49.37250        6.3875234E-18
   49.51500        6.3983082E-18
   49.65750        6.4076731E-18
   49.80000        6.4141682E-18
   49.94250        6.4168474E-18
   50.08500        6.4154689E-18
   50.22750        6.4105530E-18
   50.37000        6.4032854E-18
   50.51250        6.3952816E-18
   50.65500        6.3882563E-18
   50.79750        6.3836816E-18
   50.94000        6.3825024E-18
   51.08250        6.3849683E-18
   51.22500        6.3906138E-18
   51.36750        6.3983752E-18
   51.51000        6.4068158E-18
   51.65250        6.4144176E-18
   51.79500        6.4198720E-18
   51.93750        6.4223353E-18
   52.08000        6.4215967E-18
   52.22250        6.4181237E-18
   52.36500        6.4129820E-18
   52.50750        6.4076231E-18
   52.65000        6.4035898E-18
   52.79250        6.4021902E-18
   52.93500        6.4042180E-18
   53.07750        6.4097816E-18
   53.22000        6.4182838E-18
   53.36250        6.4285541E-18
   53.50500        6.4391002E-18
   53.64750        6.4484209E-18
   53.79000        6.4552997E-18
   53.93250        6.4590332E-18
   54.07500        6.4595448E-18
   54.21750        6.4573784E-18
   54.36000        6.4535717E-18
   54.50250        6.4494445E-18
   54.64500        6.4463285E-18
   54.78750        6.4452941E-18
   54.93000        6.4469216E-18
   55.07250        6.4511638E-18
   55.21500        6.4573420E-18
   55.35750        6.4642817E-18
   55.50000        6.4705629E-18
   55.64250        6.4748381E-18
   55.78500        6.4761389E-18
   55.92750        6.4740962E-18
   56.07000        6.4690272E-18
   56.21250        6.4618775E-18
   56.35500        6.4540242E-18
   56.49750        6.4470047E-18
   56.64000        6.4422187E-18
   56.78250        6.4406644E-18
   56.92500        6.4427576E-18
   57.06750        6.4482501E-18
   57.21000        6.4562712E-18
   57.35250        6.4654836E-18
   57.49500        6.4743336E-18
   57.63750        6.4813530E-18
   57.78000        6.4854600E-18
   57.92250        6.4861875E-18
   58.06500        6.4837924E-18
   58.20750        6.4792044E-18
   58.35000        6.4738265E-18
   58.49250        6.4692352E-18
   58.63500        6.4668434E-18
   58.77750        6.4676077E-18
   58.92000        6.4718417E-18
   59.06250        6.4791614E-18
   59.20500        6.4885735E-18
   59.34750        6.4986713E-18
   59.49000        6.5079039E-18
   59.63250        6.5148638E-18
   59.77500        6.5185538E-18
   59.91750        6.5185836E-18
   60.06000        6.5152596E-18
   60.20250        6.5095384E-18
   60.34500        6.5028556E-18
   60.48750        6.4968387E-18
   60.63000        6.4929716E-18
   60.77250        6.4922854E-18
   60.91500        6.4951409E-18
   61.05750        6.5011644E-18
   61.20000        6.5093357E-18
   61.34250        6.5182238E-18
   61.48500        6.5262875E-18
   61.62750        6.5321961E-18
   61.77000        6.5350846E-18
   61.91250        6.5347206E-18
   62.05500        6.5315372E-18
   62.19750        6.5265510E-18
   62.34000        6.5211710E-18
   62.48250        6.5169255E-18
   62.62500        6.5151628E-18
   62.76750        6.5167671E-18
   62.91000        6.5219577E-18
   63.05250        6.5302171E-18
   63.19500        6.5403765E-18
   63.33750        6.5508478E-18
   63.48000        6.5599509E-18
   63.62250        6.5662660E-18
   63.76500        6.5689208E-18
   63.90750        6.5677607E-18
   64.05000        6.5633580E-18
   64.19250        6.5568775E-18
   64.33500        6.5498295E-18
   64.47750        6.5437725E-18
   64.62000        6.5400134E-18
   64.76250        6.5393628E-18
   64.90500        6.5419845E-18
   65.04750        6.5473579E-18
   65.19000        6.5543736E-18
   65.33250        6.5615502E-18
   65.47500        6.5673380E-18
   65.61750        6.5704499E-18
   65.76000        6.5701517E-18
   65.90250        6.5664368E-18
   66.04500        6.5600477E-18
   66.18750        6.5523193E-18
   66.33000        6.5449041E-18
   66.47250        6.5394232E-18
   66.61500        6.5371418E-18
   66.75750        6.5387221E-18
   66.90000        6.5441104E-18
   67.04250        6.5525600E-18
   67.18500        6.5627786E-18
   67.32750        6.5731688E-18
   67.47000        6.5821222E-18
   67.61250        6.5883137E-18
   67.75500        6.5909565E-18
   67.89750        6.5899573E-18
   68.04000        6.5859467E-18
   68.18250        6.5801589E-18
   68.32500        6.5741772E-18
   68.46750        6.5695995E-18
   68.61000        6.5677028E-18
   68.75250        6.5691702E-18
   68.89500        6.5739646E-18
   69.03750        6.5813579E-18
   69.18000        6.5901037E-18
   69.32250        6.5987126E-18
   69.46500        6.6057544E-18
   69.60750        6.6101343E-18
   69.75000        6.6112936E-18
   69.89250        6.6093096E-18
   70.03500        6.6048780E-18
   70.17750        6.5991865E-18
   70.32000        6.5936945E-18
   70.46250        6.5898506E-18
   70.60500        6.5887963E-18
   70.74750        6.5911224E-18
   70.89000        6.5967311E-18
   71.03250        6.6048449E-18
   71.17500        6.6141722E-18
   71.31750        6.6231802E-18
   71.46000        6.6304263E-18
   71.60250        6.6348508E-18
   71.74500        6.6359841E-18
   71.88750        6.6340133E-18
   72.03000        6.6297223E-18
   72.17250        6.6243163E-18
   72.31500        6.6191824E-18
   72.45750        6.6156276E-18
   72.60000        6.6146337E-18
   72.74250        6.6166686E-18
   72.88500        6.6215874E-18
   73.02750        6.6286499E-18
   73.17000        6.6366508E-18
   73.31250        6.6441645E-18
   73.45500        6.6498435E-18
   73.59750        6.6527142E-18
   73.74000        6.6523929E-18
   73.88250        6.6491689E-18
   74.02500        6.6439329E-18
   74.16750        6.6379755E-18
   74.31000        6.6327064E-18
   74.45250        6.6293600E-18
   74.59500        6.6287545E-18
   74.73750        6.6311496E-18
   74.88000        6.6362058E-18
   75.02250        6.6430606E-18
   75.16500        6.6504895E-18
   75.30750        6.6571380E-18
   75.45000        6.6617748E-18
   75.59250        6.6635495E-18
   75.73500        6.6621759E-18
   75.87750        6.6580206E-18
   76.02000        6.6520446E-18
   76.16250        6.6456199E-18
   76.30500        6.6402370E-18
   76.44750        6.6371893E-18
   76.59000        6.6372960E-18
   76.73250        6.6407391E-18
   76.87500        6.6470451E-18
   77.01750        6.6552024E-18
   77.16000        6.6638836E-18
   77.30250        6.6717092E-18
   77.44500        6.6775123E-18
   77.58750        6.6805464E-18
   77.73000        6.6806216E-18
   77.87250        6.6781401E-18
   78.01500        6.6740261E-18
   78.15750        6.6695577E-18
   78.30000        6.6661154E-18
   78.44250        6.6648998E-18
   78.58500        6.6666630E-18
   78.72750        6.6715396E-18
   78.87000        6.6790012E-18
   79.01250        6.6879720E-18
   79.15500        6.6970631E-18
   79.29750        6.7048746E-18
   79.44000        6.7102905E-18
   79.58250        6.7126960E-18
   79.72500        6.7120806E-18
   79.86750        6.7090167E-18
   80.01000        6.7045272E-18
   80.15250        6.6998863E-18
   80.29500        6.6963716E-18
   80.43750        6.6950274E-18
   80.58000        6.6964605E-18
   80.72250        6.7007064E-18
   80.86500        6.7072056E-18
   81.00750        6.7148946E-18
   81.15000        6.7224191E-18
   81.29250        6.7284153E-18
   81.43500        6.7318080E-18
   81.57750        6.7320462E-18
   81.72000        6.7292169E-18
   81.86250        6.7240147E-18
   82.00500        6.7175780E-18
   82.14750        6.7112323E-18
   82.29000        6.7062188E-18
   82.43250        6.7034506E-18
   82.57500        6.7033534E-18
   82.71750        6.7057948E-18
   82.86000        6.7101239E-18
   83.00250        6.7152933E-18
   83.14500        6.7200571E-18
   83.28750        6.7232119E-18
   83.43000        6.7238480E-18
   83.57250        6.7215543E-18
   83.71500        6.7165333E-18
   83.85750        6.7095817E-18
   84.00000        6.7019397E-18
   84.14250        6.6950295E-18
   84.28500        6.6901491E-18
   84.42750        6.6882023E-18
   84.57000        6.6895163E-18
   84.71250        6.6937945E-18
   84.85500        6.7001973E-18
   84.99750        6.7075269E-18
   85.14000        6.7144620E-18
   85.28250        6.7198019E-18
   85.42500        6.7226821E-18
   85.56750        6.7227264E-18
   85.71000        6.7201216E-18
   85.85250        6.7155953E-18
   85.99500        6.7102860E-18
   86.13750        6.7055305E-18
   86.28000        6.7025849E-18
   86.42250        6.7023554E-18
   86.56500        6.7051935E-18
   86.70750        6.7108113E-18
   86.85000        6.7183444E-18
   86.99250        6.7265442E-18
   87.13500        6.7340484E-18
   87.27750        6.7396666E-18
   87.42000        6.7426064E-18
   87.56250        6.7426130E-18
   87.70500        6.7399950E-18
   87.84750        6.7355522E-18
   87.99000        6.7304245E-18
   88.13250        6.7258854E-18
   88.27500        6.7231156E-18
   88.41750        6.7229820E-18
   88.56000        6.7258614E-18
   88.70250        6.7315549E-18
   88.84500        6.7393147E-18
   88.98750        6.7479955E-18
   89.13000        6.7562996E-18
   89.27250        6.7630667E-18
   89.41500        6.7675314E-18
   89.55750        6.7694861E-18
   89.70000        6.7693103E-18
   89.84250        6.7678689E-18
   89.98500        6.7663068E-18
   90.12750        6.7658022E-18
   90.27000        6.7673255E-18
   90.41250        6.7714486E-18
   90.55500        6.7782331E-18
   90.69750        6.7872026E-18
   90.84000        6.7974121E-18
   90.98250        6.8076042E-18
   91.12500        6.8164331E-18
   91.26750        6.8227284E-18
   91.41000        6.8257368E-18
   91.55250        6.8253038E-18
   91.69500        6.8219177E-18
   91.83750        6.8166225E-18
   91.98000        6.8107992E-18
   92.12250        6.8058729E-18
   92.26500        6.8030142E-18
   92.40750        6.8029141E-18
   92.55000        6.8056661E-18
   92.69250        6.8107769E-18
   92.83500        6.8172930E-18
   92.97750        6.8239998E-18
   93.12000        6.8296614E-18
   93.26250        6.8332571E-18
   93.40500        6.8341824E-18
   93.54750        6.8323779E-18
   93.69000        6.8283619E-18
   93.83250        6.8231478E-18
   93.97500        6.8180498E-18
   94.11750        6.8144090E-18
   94.26000        6.8132965E-18
   94.40250        6.8152676E-18
   94.54500        6.8202282E-18
   94.68750        6.8274508E-18
   94.83000        6.8357275E-18
   94.97250        6.8436275E-18
   95.11500        6.8497888E-18
   95.25750        6.8531744E-18
   95.40000        6.8532563E-18
   95.54250        6.8500919E-18
   95.68500        6.8442967E-18
   95.82750        6.8369249E-18
   95.97000        6.8292739E-18
   96.11250        6.8226502E-18
   96.25500        6.8181193E-18
   96.39750        6.8162946E-18
   96.54000        6.8172061E-18
   96.68250        6.8202907E-18
   96.82500        6.8245143E-18
   96.96750        6.8286063E-18
   97.11000        6.8313522E-18
   97.25250        6.8318691E-18
   97.39500        6.8298012E-18
   97.53750        6.8253832E-18
   97.68000        6.8193738E-18
   97.82250        6.8128787E-18
   97.96500        6.8071220E-18
   98.10750        6.8032053E-18
   98.25000        6.8019008E-18
   98.39250        6.8035150E-18
   98.53500        6.8078242E-18
   98.67750        6.8141009E-18
   98.82000        6.8212337E-18
   98.96250        6.8279231E-18
   99.10500        6.8329325E-18
   99.24750        6.8353425E-18
   99.39000        6.8347510E-18