  -30.00000        4.8966441E-18
  -29.85750        4.9019918E-18
  -29.71500        4.9117699E-18
  -29.57250        4.9243902E-18
  -29.43000        4.9379039E-18
  -29.28750        4.9503790E-18
  -29.14500        4.9602729E-18
  -29.00250        4.9667191E-18
  -28.86000        4.9696813E-18
  -28.71750        4.9699356E-18
  -28.57500        4.9688901E-18
  -28.43250        4.9682792E-18
  -28.29000        4.9697942E-18
  -28.14750        4.9747221E-18
  -28.00500        4.9836705E-18
  -27.86250        4.9964269E-18
  -27.72000        5.0119907E-18
  -27.57750        5.0287647E-18
  -27.43500        5.0448666E-18
  -27.29250        5.0585068E-18
  -27.15000        5.0683436E-18
  -27.00750        5.0737567E-18
  -26.86500        5.0749690E-18
  -26.72250        5.0730052E-18
  -26.58000        5.0694897E-18
  -26.43750        5.0663237E-18
  -26.29500        5.0653075E-18
  -26.15250        5.0677874E-18
  -26.01000        5.0743932E-18
  -25.86750        5.0849191E-18
  -25.72500        5.0983728E-18
  -25.58250        5.1131806E-18
  -25.44000        5.1275057E-18
  -25.29750        5.1396243E-18
  -25.15500        5.1482696E-18
  -25.01250        5.1528890E-18
  -24.87000        5.1537517E-18
  -24.72750        5.1518901E-18
  -24.58500        5.1488891E-18
  -24.44250        5.1465577E-18
  -24.30000        5.1465606E-18
  -24.15750        5.1500790E-18
  -24.01500        5.1575671E-18
  -23.87250        5.1686649E-18
  -23.73000        5.1822683E-18
  -23.58750        5.1967548E-18
  -23.44500        5.2103131E-18
  -23.30250        5.2213075E-18
  -23.16000        5.2286136E-18
  -23.01750        5.2318396E-18
  -22.87500        5.2314128E-18
  -22.73250        5.2284916E-18
  -22.59000        5.2247329E-18
  -22.44750        5.2219585E-18
  -22.30500        5.2217861E-18
  -22.16250        5.2253003E-18
  -22.02000        5.2328339E-18
  -21.87750        5.2438978E-18
  -21.73500        5.2572812E-18
  -21.59250        5.2712999E-18
  -21.45000        5.2841377E-18
  -21.30750        5.2942152E-18
  -21.16500        5.3005093E-18
  -21.02250        5.3027567E-18
  -20.88000        5.3015056E-18
  -20.73750        5.2980021E-18
  -20.59500        5.2939344E-18
  -20.45250        5.2910902E-18
  -20.31000        5.2909905E-18
  -20.16750        5.2945842E-18
  -20.02500        5.3020499E-18
  -19.88250        5.3127619E-18
  -19.74000        5.3254165E-18
  -19.59750        5.3383019E-18
  -19.45500        5.3496521E-18
  -19.31250        5.3580136E-18
  -19.17000        5.3625536E-18
  -19.02750        5.3632364E-18
  -18.88500        5.3608393E-18
  -18.74250        5.3567997E-18
  -18.60000        5.3529256E-18
  -18.45750        5.3510285E-18
  -18.31500        5.3525509E-18
  -18.17250        5.3582696E-18
  -18.03000        5.3681259E-18
  -17.88750        5.3812272E-18
  -17.74500        5.3960085E-18
  -17.60250        5.4105354E-18
  -17.46000        5.4228807E-18
  -17.31750        5.4315020E-18
  -17.17500        5.4355523E-18
  -17.03250        5.4350465E-18
  -16.89000        5.4308609E-18
  -16.74750        5.4245648E-18
  -16.60500        5.4181062E-18
  -16.46250        5.4134273E-18
  -16.32000        5.4120806E-18
  -16.17750        5.4149269E-18
  -16.03500        5.4219729E-18
  -15.89250        5.4323800E-18
  -15.75000        5.4446430E-18
  -15.60750        5.4568985E-18
  -15.46500        5.4673024E-18
  -15.32250        5.4743988E-18
  -15.18000        5.4774142E-18
  -15.03750        5.4764063E-18
  -14.89500        5.4722526E-18
  -14.75250        5.4664632E-18
  -14.61000        5.4608760E-18
  -14.46750        5.4572761E-18
  -14.32500        5.4570271E-18
  -14.18250        5.4607896E-18
  -14.04000        5.4683773E-18
  -13.89750        5.4787932E-18
  -13.75500        5.4904279E-18
  -13.61250        5.5013814E-18
  -13.47000        5.5098476E-18
  -13.32750        5.5144752E-18
  -13.18500        5.5146419E-18
  -13.04250        5.5105817E-18
  -12.90000        5.5033406E-18
  -12.75750        5.4945770E-18
  -12.61500        5.4862432E-18
  -12.47250        5.4802027E-18
  -12.33000        5.4778717E-18
  -12.18750        5.4799508E-18
  -12.04500        5.4862953E-18
  -11.90250        5.4959596E-18
  -11.76000        5.5073991E-18
  -11.61750        5.5187960E-18
  -11.47500        5.5284347E-18
  -11.33250        5.5350547E-18
  -11.19000        5.5381070E-18
  -11.04750        5.5378555E-18
  -10.90500        5.5353148E-18
  -10.76250        5.5320305E-18
  -10.62000        5.5297483E-18
  -10.47750        5.5300477E-18
  -10.33500        5.5340029E-18
  -10.19250        5.5419434E-18
  -10.05000        5.5533631E-18
  -9.907500        5.5669975E-18
  -9.765000        5.5810505E-18
  -9.622500        5.5935326E-18
  -9.480000        5.6026452E-18
  -9.337500        5.6071298E-18
  -9.195000        5.6065173E-18
  -9.052500        5.6012229E-18
  -8.910000        5.5924660E-18
  -8.767500        5.5820323E-18
  -8.625000        5.5719283E-18
  -8.482500        5.5639919E-18
  -8.340000        5.5595533E-18
  -8.197500        5.5591914E-18
  -8.055000        5.5626519E-18
  -7.912500        5.5689269E-18
  -7.770000        5.5764828E-18
  -7.627500        5.5835891E-18
  -7.485000        5.5886775E-18
  -7.342500        5.5906706E-18
  -7.200000        5.5892044E-18
  -7.057500        5.5847037E-18
  -6.915000        5.5783005E-18
  -6.772500        5.5715979E-18
  -6.630000        5.5663432E-18
  -6.487500        5.5640589E-18
  -6.345000        5.5657298E-18
  -6.202500        5.5715925E-18
  -6.060000        5.5810823E-18
  -5.917500        5.5929453E-18
  -5.775000        5.6054899E-18
  -5.632500        5.6169240E-18
  -5.490000        5.6257124E-18
  -5.347500        5.6308749E-18
  -5.205000        5.6321739E-18
  -5.062500        5.6301515E-18
  -4.920000        5.6260110E-18
  -4.777500        5.6213652E-18
  -4.635000        5.6179034E-18
  -4.492500        5.6170394E-18
  -4.350000        5.6196190E-18
  -4.207500        5.6257385E-18
  -4.065000        5.6347225E-18
  -3.922500        5.6452604E-18
  -3.780000        5.6556787E-18
  -3.637500        5.6642934E-18
  -3.495000        5.6697639E-18
  -3.352500        5.6713798E-18
  -3.210000        5.6692163E-18
  -3.067500        5.6641292E-18
  -2.925000        5.6575870E-18
  -2.782500        5.6513860E-18
  -2.640000        5.6472923E-18
  -2.497500        5.6466893E-18
  -2.355000        5.6502975E-18
  -2.212500        5.6580209E-18
  -2.070000        5.6689549E-18
  -1.927500        5.6815554E-18
  -1.785000        5.6939346E-18
  -1.642500        5.7042309E-18
  -1.500000        5.7109819E-18
  -1.357500        5.7134118E-18
  -1.215000        5.7115882E-18
  -1.072500        5.7064043E-18
 -0.9300000        5.6993948E-18
 -0.7875000        5.6924237E-18
 -0.6450000        5.6873076E-18
 -0.5025000        5.6854572E-18
 -0.3600000        5.6875963E-18
 -0.2175000        5.6936268E-18
 -7.5000003E-02    5.7026547E-18
  6.7500003E-02    5.7131698E-18
  0.2100000        5.7233528E-18
  0.3525000        5.7314340E-18
  0.4950000        5.7360525E-18
  0.6375000        5.7365298E-18
  0.7800000        5.7330130E-18
  0.9225000        5.7264485E-18
   1.065000        5.7183947E-18
   1.207500        5.7107077E-18
   1.350000        5.7051664E-18
   1.492500        5.7031134E-18
   1.635000        5.7051871E-18
   1.777500        5.7112020E-18
   1.920000        5.7201955E-18
   2.062500        5.7306320E-18
   2.205000        5.7407170E-18
   2.347500        5.7487601E-18
   2.490000        5.7535122E-18
   2.632500        5.7544093E-18
   2.775000        5.7516833E-18
   2.917500        5.7463141E-18
   3.060000        5.7398323E-18
   3.202500        5.7340131E-18
   3.345000        5.7305158E-18
   3.487500        5.7305447E-18
   3.630000        5.7346045E-18
   3.772500        5.7423916E-18
   3.915000        5.7528617E-18
   4.057500        5.7644447E-18
   4.200000        5.7753734E-18
   4.342500        5.7840464E-18
   4.485000        5.7893548E-18
   4.627500        5.7909049E-18
   4.770000        5.7890885E-18
   4.912500        5.7849956E-18
   5.055000        5.7801888E-18
   5.197500        5.7763854E-18
   5.340000        5.7751012E-18
   5.482500        5.7773400E-18
   5.625000        5.7833809E-18
   5.767500        5.7927024E-18
   5.910000        5.8040741E-18
   6.052500        5.8157927E-18
   6.195000        5.8260179E-18
   6.337500        5.8331470E-18
   6.480000        5.8361422E-18
   6.622500        5.8347488E-18
   6.765000        5.8295525E-18
   6.907500        5.8218709E-18
   7.050000        5.8134932E-18
   7.192500        5.8063339E-18
   7.335000        5.8020624E-18
   7.477500        5.8017861E-18
   7.620000        5.8058488E-18
   7.762500        5.8137765E-18
   7.905000        5.8243768E-18
   8.047500        5.8359817E-18
   8.190000        5.8467781E-18
   8.332500        5.8551649E-18
   8.475000        5.8600705E-18
   8.617500        5.8611628E-18
   8.760000        5.8589041E-18
   8.902500        5.8544461E-18
   9.045000        5.8493771E-18
   9.187500        5.8453814E-18
   9.330000        5.8438801E-18
   9.472500        5.8457321E-18
   9.615000        5.8510575E-18
   9.757500        5.8592127E-18
   9.900000        5.8689296E-18
   10.04250        5.8785708E-18
   10.18500        5.8864654E-18
   10.32750        5.8912461E-18
   10.47000        5.8921279E-18
   10.61250        5.8890723E-18
   10.75500        5.8828068E-18
   10.89750        5.8746930E-18
   11.04000        5.8664617E-18
   11.18250        5.8598720E-18
   11.32500        5.8563552E-18
   11.46750        5.8567307E-18
   11.61000        5.8610370E-18
   11.75250        5.8685329E-18
   11.89500        5.8778640E-18
   12.03750        5.8873463E-18
   12.18000        5.8953237E-18
   12.32250        5.9005101E-18
   12.46500        5.9022513E-18
   12.60750        5.9006553E-18
   12.75000        5.8965661E-18
   12.89250        5.8913966E-18
   13.03500        5.8868380E-18
   13.17750        5.8845215E-18
   13.32000        5.8856787E-18
   13.46250        5.8908801E-18
   13.60500        5.8998972E-18
   13.74750        5.9117246E-18
   13.89000        5.9247676E-18
   14.03250        5.9371472E-18
   14.17500        5.9470799E-18
   14.31750        5.9532362E-18
   14.46000        5.9550114E-18
   14.60250        5.9526485E-18
   14.74500        5.9471879E-18
   14.88750        5.9402582E-18
   15.03000        5.9337503E-18
   15.17250        5.9294498E-18
   15.31500        5.9286884E-18
   15.45750        5.9320935E-18
   15.60000        5.9394678E-18
   15.74250        5.9498324E-18
   15.88500        5.9616152E-18
   16.02750        5.9729616E-18
   16.17000        5.9821019E-18
   16.31250        5.9877040E-18
   16.45500        5.9891466E-18
   16.59750        5.9866440E-18
   16.74000        5.9812020E-18
   16.88250        5.9744096E-18
   17.02500        5.9681077E-18
   17.16750        5.9640152E-18
   17.31000        5.9633758E-18
   17.45250        5.9667168E-18
   17.59500        5.9737503E-18
   17.73750        5.9834403E-18
   17.88000        5.9942185E-18
   18.02250        6.0042956E-18
   18.16500        6.0120173E-18
   18.30750        6.0161905E-18
   18.45000        6.0163195E-18
   18.59250        6.0127118E-18
   18.73500        6.0064190E-18
   18.87750        5.9990319E-18
   19.02000        5.9923590E-18
   19.16250        5.9880610E-18
   19.30500        5.9873095E-18
   19.44750        5.9905504E-18
   19.59000        5.9974205E-18
   19.73250        6.0068313E-18
   19.87500        6.0172038E-18
   20.01750        6.0267953E-18
   20.16000        6.0340580E-18
   20.30250        6.0379416E-18
   20.44500        6.0381029E-18
   20.58750        6.0349588E-18
   20.73000        6.0296049E-18
   20.87250        6.0235892E-18
   21.01500        6.0186046E-18
   21.15750        6.0161429E-18
   21.30000        6.0171918E-18
   21.44250        6.0220200E-18
   21.58500        6.0301165E-18
   21.72750        6.0402858E-18
   21.87000        6.0508936E-18
   22.01250        6.0602039E-18
   22.15500        6.0667424E-18
   22.29750        6.0695974E-18
   22.44000        6.0686073E-18
   22.58250        6.0643833E-18
   22.72500        6.0581823E-18
   22.86750        6.0516463E-18
   23.01000        6.0464740E-18
   23.15250        6.0440851E-18
   23.29500        6.0453391E-18
   23.43750        6.0503663E-18
   23.58000        6.0585330E-18
   23.72250        6.0685638E-18
   23.86500        6.0787836E-18
   24.00750        6.0874546E-18
   24.15000        6.0931274E-18
   24.29250        6.0949426E-18
   24.43500        6.0928106E-18
   24.57750        6.0874355E-18
   24.72000        6.0801717E-18
   24.86250        6.0727419E-18
   25.00500        6.0668900E-18
   25.14750        6.0640276E-18
   25.29000        6.0649635E-18
   25.43250        6.0697558E-18
   25.57500        6.0777137E-18
   25.71750        6.0875489E-18
   25.86000        6.0976326E-18
   26.00250        6.1063234E-18
   26.14500        6.1122878E-18
   26.28750        6.1147697E-18
   26.43000        6.1137473E-18
   26.57250        6.1099390E-18
   26.71500        6.1046624E-18
   26.85750        6.0995637E-18
   27.00000        6.0962711E-18
   27.14250        6.0960502E-18
   27.28500        6.0995376E-18
   27.42750        6.1066034E-18
   27.57000        6.1163811E-18
   27.71250        6.1274525E-18
   27.85500        6.1381363E-18
   27.99750        6.1468300E-18
   28.14000        6.1523262E-18
   28.28250        6.1540480E-18
   28.42500        6.1521562E-18
   28.56750        6.1475186E-18
   28.71000        6.1415373E-18
   28.85250        6.1358752E-18
   28.99500        6.1321219E-18
   29.13750        6.1314701E-18
   29.28000        6.1344670E-18
   29.42250        6.1408913E-18
   29.56500        6.1497959E-18
   29.70750        6.1596993E-18
   29.85000        6.1688975E-18
   29.99250        6.1758185E-18
   30.13500        6.1793523E-18
   30.27750        6.1790727E-18
   30.42000        6.1753202E-18
   30.56250        6.1691246E-18
   30.70500        6.1619935E-18
   30.84750        6.1556093E-18
   30.99000        6.1514953E-18
   31.13250        6.1507182E-18
   31.27500        6.1536724E-18
   31.41750        6.1599967E-18
   31.56000        6.1686366E-18
   31.70250        6.1780453E-18
   31.84500        6.1864966E-18
   31.98750        6.1924395E-18
   32.13000        6.1948247E-18
   32.27250        6.1933349E-18
   32.41500        6.1884562E-18
   32.55750        6.1813855E-18
   32.70000        6.1737878E-18
   32.84250        6.1674570E-18
   32.98500        6.1639560E-18
   33.12750        6.1643116E-18
   33.27000        6.1688189E-18
   33.41250        6.1769853E-18
   33.55500        6.1876274E-18
   33.69750        6.1990954E-18
   33.84000        6.2095812E-18
   33.98250        6.2174630E-18
   34.12500        6.2216166E-18
   34.26750        6.2216340E-18
   34.41000        6.2179084E-18
   34.55250        6.2115581E-18
   34.69500        6.2041991E-18
   34.83750        6.1976152E-18
   34.98000        6.1933941E-18
   35.12250        6.1926058E-18
   35.26500        6.1955985E-18
   35.40750        6.2019471E-18
   35.55000        6.2105643E-18
   35.69250        6.2199337E-18
   35.83500        6.2284314E-18
   35.97750        6.2346452E-18
   36.12000        6.2376536E-18
   36.26250        6.2372007E-18
   36.40500        6.2337468E-18
   36.54750        6.2283776E-18
   36.69000        6.2225940E-18
   36.83250        6.2180105E-18
   36.97500        6.2160286E-18
   37.11750        6.2175403E-18
   37.26000        6.2227371E-18
   37.40250        6.2310680E-18
   37.54500        6.2413490E-18
   37.68750        6.2520193E-18
   37.83000        6.2614690E-18
   37.97250        6.2683743E-18
   38.11500        6.2719659E-18
   38.25750        6.2721747E-18
   38.40000        6.2696291E-18
   38.54250        6.2655172E-18
   38.68500        6.2613399E-18
   38.82750        6.2586040E-18
   38.97000        6.2585213E-18
   39.11250        6.2617535E-18
   39.25500        6.2682680E-18
   39.39750        6.2773231E-18
   39.54000        6.2876008E-18
   39.68250        6.2974670E-18
   39.82500        6.3053013E-18
   39.96750        6.3098417E-18
   40.11000        6.3104513E-18
   40.25250        6.3072604E-18
   40.39500        6.3011414E-18
   40.53750        6.2935255E-18
   40.68000        6.2861103E-18
   40.82250        6.2805107E-18
   40.96500        6.2779435E-18
   41.10750        6.2789915E-18
   41.25000        6.2834960E-18
   41.39250        6.2905928E-18
   41.53500        6.2988819E-18
   41.67750        6.3066980E-18
   41.82000        6.3124382E-18
   41.96250        6.3148866E-18
   42.10500        6.3134672E-18
   42.24750        6.3083804E-18
   42.39000        6.3005785E-18
   42.53250        6.2915825E-18
   42.67500        6.2831812E-18
   42.81750        6.2770679E-18
   42.96000        6.2745020E-18
   43.10250        6.2760687E-18
   43.24500        6.2815777E-18
   43.38750        6.2901304E-18
   43.53000        6.3003163E-18
   43.67250        6.3105026E-18
   43.81500        6.3191549E-18
   43.95750        6.3251255E-18
   44.10000        6.3278663E-18
   44.24250        6.3275231E-18
   44.38500        6.3248984E-18
   44.52750        6.3212849E-18
   44.67000        6.3181962E-18
   44.81250        6.3170460E-18
   44.95500        6.3188406E-18
   45.09750        6.3239509E-18
   45.24000        6.3320242E-18
   45.38250        6.3420517E-18
   45.52500        6.3525788E-18
   45.66750        6.3620140E-18
   45.81000        6.3689541E-18
   45.95250        6.3724671E-18
   46.09500        6.3722682E-18
   46.23750        6.3687630E-18
   46.38000        6.3629578E-18
   46.52250        6.3562622E-18
   46.66500        6.3502180E-18
   46.80750        6.3462074E-18
   46.95000        6.3451887E-18
   47.09250        6.3475077E-18
   47.23500        6.3528257E-18
   47.37750        6.3601818E-18
   47.52000        6.3681885E-18
   47.66250        6.3753279E-18
   47.80500        6.3802757E-18
   47.94750        6.3821943E-18
   48.09000        6.3809130E-18
   48.23250        6.3769690E-18
   48.37500        6.3714898E-18
   48.51750        6.3659539E-18
   48.66000        6.3618870E-18
   48.80250        6.3605561E-18
   48.94500        6.3627184E-18
   49.08750        6.3684681E-18
   49.23000        6.3772122E-18
   49.37250        6.3877646E-18
   49.51500        6.3985543E-18
   49.65750        6.4079130E-18
   49.80000        6.4143923E-18
   49.94250        6.4170509E-18
   50.08500        6.4156501E-18
   50.22750        6.4107159E-18
   50.37000        6.4034405E-18
   50.51250        6.3954404E-18
   50.65500        6.3884329E-18
   50.79750        6.3838876E-18
   50.94000        6.3827452E-18
   51.08250        6.3852512E-18
   51.22500        6.3909322E-18
   51.36750        6.3987197E-18
   51.51000        6.4071735E-18
   51.65250        6.4147708E-18
   51.79500        6.4202037E-18
   51.93750        6.4226310E-18
   52.08000        6.4218461E-18
   52.22250        6.4183223E-18
   52.36500        6.4131309E-18
   52.50750        6.4077290E-18
   52.65000        6.4036617E-18
   52.79250        6.4022390E-18
   52.93500        6.4042536E-18
   53.07750        6.4098122E-18
   53.22000        6.4183132E-18
   53.36250        6.4285810E-18
   53.50500        6.4391225E-18
   53.64750        6.4484329E-18
   53.79000        6.4552960E-18
   53.93250        6.4590100E-18
   54.07500        6.4595034E-18
   54.21750        6.4573230E-18
   54.36000        6.4535105E-18
   54.50250        6.4493883E-18
   54.64500        6.4462888E-18
   54.78750        6.4452813E-18
   54.93000        6.4469415E-18
   55.07250        6.4512188E-18
   55.21500        6.4574281E-18
   55.35750        6.4643896E-18
   55.50000        6.4706807E-18
   55.64250        6.4749535E-18
   55.78500        6.4762394E-18
   55.92750        6.4741743E-18
   56.07000        6.4690822E-18
   56.21250        6.4619134E-18
   56.35500        6.4540519E-18
   56.49750        6.4470378E-18
   56.64000        6.4422716E-18
   56.78250        6.4407513E-18
   56.92500        6.4428866E-18
   57.06750        6.4484225E-18
   57.21000        6.4564822E-18
   57.35250        6.4657222E-18
   57.49500        6.4745846E-18
   57.63750        6.4815999E-18
   57.78000        6.4856879E-18
   57.92250        6.4863876E-18
   58.06500        6.4839619E-18
   58.20750        6.4793471E-18
   58.35000        6.4739531E-18
   58.49250        6.4693589E-18
   58.63500        6.4669787E-18
   58.77750        6.4677657E-18
   58.92000        6.4720274E-18
   59.06250        6.4793727E-18
   59.20500        6.4888009E-18
   59.34750        6.4989004E-18
   59.49000        6.5081169E-18
   59.63250        6.5150441E-18
   59.77500        6.5186899E-18
   59.91750        6.5186717E-18
   60.06000        6.5153026E-18
   60.20250        6.5095487E-18
   60.34500        6.5028502E-18
   60.48750        6.4968349E-18
   60.63000        6.4929881E-18
   60.77250        6.4923351E-18
   60.91500        6.4952294E-18
   61.05750        6.5012876E-18
   61.20000        6.5094850E-18
   61.34250        6.5183834E-18
   61.48500        6.5264418E-18
   61.62750        6.5323317E-18
   61.77000        6.5351954E-18
   61.91250        6.5348071E-18
   62.05500        6.5316084E-18
   62.19750        6.5266230E-18
   62.34000        6.5212616E-18
   62.48250        6.5170533E-18
   62.62500        6.5153414E-18
   62.76750        6.5170020E-18
   62.91000        6.5222455E-18
   63.05250        6.5305442E-18
   63.19500        6.5407239E-18
   63.33750        6.5511919E-18
   63.48000        6.5602702E-18
   63.62250        6.5665423E-18
   63.76500        6.5691458E-18
   63.90750        6.5679361E-18
   64.05000        6.5634941E-18
   64.19250        6.5569925E-18
   64.33500        6.5499461E-18
   64.47750        6.5439123E-18
   64.62000        6.5401928E-18
   64.76250        6.5395911E-18
   64.90500        6.5422604E-18
   65.04750        6.5476718E-18
   65.19000        6.5547107E-18
   65.33250        6.5618923E-18
   65.47500        6.5676677E-18
   65.61750        6.5707539E-18
   65.76000        6.5704246E-18
   65.90250        6.5666837E-18
   66.04500        6.5602789E-18
   66.18750        6.5525509E-18
   66.33000        6.5451530E-18
   66.47250        6.5397040E-18
   66.61500        6.5374623E-18
   66.75750        6.5390815E-18
   66.90000        6.5444996E-18
   67.04250        6.5529600E-18
   67.18500        6.5631641E-18
   67.32750        6.5735133E-18
   67.47000        6.5824022E-18
   67.61250        6.5885126E-18
   67.75500        6.5910665E-18
   67.89750        6.5899821E-18
   68.04000        6.5858991E-18
   68.18250        6.5800576E-18
   68.32500        6.5740444E-18
   68.46750        6.5694564E-18
   68.61000        6.5675655E-18
   68.75250        6.5690486E-18
   68.89500        6.5738608E-18
   69.03750        6.5812677E-18
   69.18000        6.5900189E-18
   69.32250        6.5986245E-18
   69.46500        6.6056576E-18
   69.60750        6.6100280E-18
   69.75000        6.6111844E-18
   69.89250        6.6092095E-18
   70.03500        6.6048039E-18
   70.17750        6.5991572E-18
   70.32000        6.5937263E-18
   70.46250        6.5899540E-18
   70.60500        6.5889733E-18
   70.74750        6.5913660E-18
   70.89000        6.5970268E-18
   71.03250        6.6051737E-18
   71.17500        6.6145138E-18
   71.31750        6.6235172E-18
   71.46000        6.6307468E-18
   71.60250        6.6351524E-18
   71.74500        6.6362707E-18
   71.88750        6.6342971E-18
   72.03000        6.6300164E-18
   72.17250        6.6246335E-18
   72.31500        6.6195315E-18
   72.45750        6.6160102E-18
   72.60000        6.6150428E-18
   72.74250        6.6170905E-18
   72.88500        6.6220043E-18
   73.02750        6.6290420E-18
   73.17000        6.6370007E-18
   73.31250        6.6444606E-18
   73.45500        6.6500809E-18
   73.59750        6.6528954E-18
   73.74000        6.6525265E-18
   73.88250        6.6492657E-18
   74.02500        6.6440069E-18
   74.16750        6.6380376E-18
   74.31000        6.6327639E-18
   74.45250        6.6294142E-18
   74.59500        6.6288033E-18
   74.73750        6.6311852E-18
   74.88000        6.6362202E-18
   75.02250        6.6430482E-18
   75.16500        6.6504490E-18
   75.30750        6.6570722E-18
   75.45000        6.6616937E-18
   75.59250        6.6634659E-18
   75.73500        6.6621052E-18
   75.87750        6.6579755E-18
   76.02000        6.6520372E-18
   76.16250        6.6456571E-18
   76.30500        6.6403214E-18
   76.44750        6.6373171E-18
   76.59000        6.6374602E-18
   76.73250        6.6409294E-18
   76.87500        6.6472503E-18
   77.01750        6.6554108E-18
   77.16000        6.6640830E-18
   77.30250        6.6718887E-18
   77.44500        6.6776612E-18
   77.58750        6.6806556E-18
   77.73000        6.6806837E-18
   77.87250        6.6781492E-18
   78.01500        6.6739786E-18
   78.15750        6.6694539E-18
   78.30000        6.6659603E-18
   78.44250        6.6647026E-18
   78.58500        6.6664380E-18
   78.72750        6.6713039E-18
   78.87000        6.6787754E-18
   79.01250        6.6877739E-18
   79.15500        6.6969072E-18
   79.29750        6.7047675E-18
   79.44000        6.7102318E-18
   79.58250        6.7126778E-18
   79.72500        6.7120897E-18
   79.86750        6.7090382E-18
   80.01000        6.7045487E-18
   80.15250        6.6998983E-18
   80.29500        6.6963745E-18
   80.43750        6.6950282E-18
   80.58000        6.6964708E-18
   80.72250        6.7007403E-18
   80.86500        6.7072742E-18
   81.00750        6.7150046E-18
   81.15000        6.7225680E-18
   81.29250        6.7285915E-18
   81.43500        6.7319929E-18
   81.57750        6.7322166E-18
   81.72000        6.7293513E-18
   81.86250        6.7240983E-18
   82.00500        6.7176053E-18
   82.14750        6.7112104E-18
   82.29000        6.7061671E-18
   82.43250        6.7033964E-18
   82.57500        6.7033257E-18
   82.71750        6.7058213E-18
   82.86000        6.7102219E-18
   83.00250        6.7154670E-18
   83.14500        6.7202957E-18
   83.28750        6.7234924E-18
   83.43000        6.7241404E-18
   83.57250        6.7218289E-18
   83.71500        6.7167657E-18
   83.85750        6.7097628E-18
   84.00000        6.7020766E-18
   84.14250        6.6951461E-18
   84.28500        6.6902823E-18
   84.42750        6.6883934E-18
   84.57000        6.6898029E-18
   84.71250        6.6942006E-18
   84.85500        6.7007296E-18
   84.99750        6.7081709E-18
   85.14000        6.7151833E-18
   85.28250        6.7205534E-18
   85.42500        6.7234109E-18
   85.56750        6.7233844E-18
   85.71000        6.7206754E-18
   85.85250        6.7160312E-18
   85.99500        6.7106136E-18
   86.13750        6.7057775E-18
   86.28000        6.7027922E-18
   86.42250        6.7025680E-18
   86.56500        6.7054478E-18
   86.70750        6.7111285E-18
   86.85000        6.7187245E-18
   86.99250        6.7269653E-18
   87.13500        6.7344728E-18
   87.27750        6.7400475E-18
   87.42000        6.7429013E-18
   87.56250        6.7427930E-18
   87.70500        6.7400529E-18
   87.84750        6.7355047E-18
   87.99000        6.7303104E-18
   88.13250        6.7257584E-18
   88.27500        6.7230337E-18
   88.41750        6.7229940E-18
   88.56000        6.7259987E-18
   88.70250        6.7318221E-18
   88.84500        6.7396890E-18
   88.98750        6.7484281E-18
   89.13000        6.7567281E-18
   89.27250        6.7634257E-18
   89.41500        6.7677680E-18
   89.55750        6.7695709E-18
   89.70000        6.7692433E-18
   89.84250        6.7676816E-18
   89.98500        6.7660549E-18
   90.12750        6.7655566E-18
   90.27000        6.7671547E-18
   90.41250        6.7714055E-18
   90.55500        6.7783427E-18
   90.69750        6.7874557E-18
   90.84000        6.7977682E-18
   90.98250        6.8079992E-18
   91.12500        6.8167942E-18
   91.26750        6.8229881E-18
   91.41000        6.8258518E-18
   91.55250        6.8252604E-18
   91.69500        6.8217391E-18
   91.83750        6.8163632E-18
   91.98000        6.8105357E-18
   92.12250        6.8056847E-18
   92.26500        6.8029683E-18
   92.40750        6.8030477E-18
   92.55000        6.8059755E-18
   92.69250        6.8112194E-18
   92.83500        6.8177909E-18
   92.97750        6.8244580E-18
   93.12000        6.8299865E-18
   93.26250        6.8333767E-18
   93.40500        6.8340620E-18
   93.54750        6.8320296E-18
   93.69000        6.8278449E-18
   93.83250        6.8225567E-18
   93.97500        6.8174981E-18
   94.11750        6.8140058E-18
   94.26000        6.8131252E-18
   94.40250        6.8153710E-18
   94.54500        6.8205996E-18
   94.68750        6.8280364E-18
   94.83000        6.8364372E-18
   94.97250        6.8443563E-18
   95.11500        6.8504369E-18
   95.25750        6.8536691E-18
   95.40000        6.8535657E-18
   95.54250        6.8502317E-18
   95.68500        6.8443228E-18
   95.82750        6.8369199E-18
   95.97000        6.8293272E-18
   96.11250        6.8228355E-18
   96.25500        6.8184771E-18
   96.39750        6.8168194E-18
   96.54000        6.8178480E-18
   96.68250        6.8209628E-18
   96.82500        6.8251107E-18
   96.96750        6.8290249E-18
   97.11000        6.8315180E-18
   97.25250        6.8317517E-18
   97.39500        6.8294223E-18
   97.53750        6.8248154E-18
   97.68000        6.8187248E-18
   97.82250        6.8122724E-18
   97.96500        6.8066720E-18
   98.10750        6.8029919E-18
   98.25000        6.8019579E-18
   98.39250        6.8038219E-18
   98.53500        6.8083115E-18
   98.67750        6.8146671E-18
   98.82000        6.8217664E-18
   98.96250        6.8283226E-18
   99.10500        6.8331339E-18
   99.24750        6.8353280E-18
   99.39000        6.8345542E-18