  -30.00000        9.7844703E-19
  -29.85750        9.8019982E-19
  -29.71500        9.8339822E-19
  -29.57250        9.8751437E-19
  -29.43000        9.9190670E-19
  -29.28750        9.9594883E-19
  -29.14500        9.9914960E-19
  -29.00250        1.0012397E-18
  -28.86000        1.0022159E-18
  -28.71750        1.0023273E-18
  -28.57500        1.0020217E-18
  -28.43250        1.0018475E-18
  -28.29000        1.0023454E-18
  -28.14750        1.0039345E-18
  -28.00500        1.0068207E-18
  -27.86250        1.0109462E-18
  -27.72000        1.0159929E-18
  -27.57750        1.0214391E-18
  -27.43500        1.0266646E-18
  -27.29250        1.0310771E-18
  -27.15000        1.0342383E-18
  -27.00750        1.0359514E-18
  -26.86500        1.0363027E-18
  -26.72250        1.0356387E-18
  -26.58000        1.0344931E-18
  -26.43750        1.0334795E-18
  -26.29500        1.0331685E-18
  -26.15250        1.0339826E-18
  -26.01000        1.0361165E-18
  -25.86750        1.0395028E-18
  -25.72500        1.0438277E-18
  -25.58250        1.0485897E-18
  -25.44000        1.0531992E-18
  -25.29750        1.0570964E-18
  -25.15500        1.0598646E-18
  -25.01250        1.0613192E-18
  -24.87000        1.0615498E-18
  -24.72750        1.0608997E-18
  -24.58500        1.0598947E-18
  -24.44250        1.0591289E-18
  -24.30000        1.0591399E-18
  -24.15750        1.0602965E-18
  -24.01500        1.0627278E-18
  -23.87250        1.0662986E-18
  -23.73000        1.0706452E-18
  -23.58750        1.0752504E-18
  -23.44500        1.0795462E-18
  -23.30250        1.0830260E-18
  -23.16000        1.0853416E-18
  -23.01750        1.0863766E-18
  -22.87500        1.0862675E-18
  -22.73250        1.0853856E-18
  -22.59000        1.0842594E-18
  -22.44750        1.0834696E-18
  -22.30500        1.0835265E-18
  -22.16250        1.0847581E-18
  -22.02000        1.0872425E-18
  -21.87750        1.0907891E-18
  -21.73500        1.0949822E-18
  -21.59250        1.0992713E-18
  -21.45000        1.1030902E-18
  -21.30750        1.1059745E-18
  -21.16500        1.1076537E-18
  -21.02250        1.1081057E-18
  -20.88000        1.1075595E-18
  -20.73750        1.1064483E-18
  -20.59500        1.1053275E-18
  -20.45250        1.1047660E-18
  -20.31000        1.1052327E-18
  -20.16750        1.1070003E-18
  -20.02500        1.1100830E-18
  -19.88250        1.1142273E-18
  -19.74000        1.1189608E-18
  -19.59750        1.1236876E-18
  -19.45500        1.1278145E-18
  -19.31250        1.1308795E-18
  -19.17000        1.1326525E-18
  -19.02750        1.1331829E-18
  -18.88500        1.1327909E-18
  -18.74250        1.1320004E-18
  -18.60000        1.1314298E-18
  -18.45750        1.1316701E-18
  -18.31500        1.1331667E-18
  -18.17250        1.1361290E-18
  -18.03000        1.1404869E-18
  -17.88750        1.1458941E-18
  -17.74500        1.1517850E-18
  -17.60250        1.1574734E-18
  -17.46000        1.1622801E-18
  -17.31750        1.1656623E-18
  -17.17500        1.1673234E-18
  -17.03250        1.1672745E-18
  -16.89000        1.1658341E-18
  -16.74750        1.1635653E-18
  -16.60500        1.1611621E-18
  -16.46250        1.1593127E-18
  -16.32000        1.1585644E-18
  -16.17750        1.1592255E-18
  -16.03500        1.1613154E-18
  -15.89250        1.1645739E-18
  -15.75000        1.1685217E-18
  -15.60750        1.1725587E-18
  -15.46500        1.1760794E-18
  -15.32250        1.1785907E-18
  -15.18000        1.1798055E-18
  -15.03750        1.1796962E-18
  -14.89500        1.1785000E-18
  -14.75250        1.1766690E-18
  -14.61000        1.1747757E-18
  -14.46750        1.1733872E-18
  -14.32500        1.1729446E-18
  -14.18250        1.1736629E-18
  -14.04000        1.1754854E-18
  -13.89750        1.1780964E-18
  -13.75500        1.1809921E-18
  -13.61250        1.1835869E-18
  -13.47000        1.1853390E-18
  -13.32750        1.1858635E-18
  -13.18500        1.1850097E-18
  -13.04250        1.1828969E-18
  -12.90000        1.1798968E-18
  -12.75750        1.1765697E-18
  -12.61500        1.1735651E-18
  -12.47250        1.1715028E-18
  -12.33000        1.1708568E-18
  -12.18750        1.1718647E-18
  -12.04500        1.1744757E-18
  -11.90250        1.1783619E-18
  -11.76000        1.1829832E-18
  -11.61750        1.1876951E-18
  -11.47500        1.1918797E-18
  -11.33250        1.1950664E-18
  -11.19000        1.1970190E-18
  -11.04750        1.1977707E-18
  -10.90500        1.1976031E-18
  -10.76250        1.1969752E-18
  -10.62000        1.1964251E-18
  -10.47750        1.1964564E-18
  -10.33500        1.1974360E-18
  -10.19250        1.1995192E-18
  -10.05000        1.2026151E-18
  -9.907500        1.2063992E-18
  -9.765000        1.2103711E-18
  -9.622500        1.2139529E-18
  -9.480000        1.2166030E-18
  -9.337500        1.2179289E-18
  -9.195000        1.2177684E-18
  -9.052500        1.2162265E-18
  -8.910000        1.2136488E-18
  -8.767500        1.2105503E-18
  -8.625000        1.2075074E-18
  -8.482500        1.2050433E-18
  -8.340000        1.2035282E-18
  -8.197500        1.2031181E-18
  -8.055000        1.2037355E-18
  -7.912500        1.2050985E-18
  -7.770000        1.2067873E-18
  -7.627500        1.2083341E-18
  -7.485000        1.2093194E-18
  -7.342500        1.2094625E-18
  -7.200000        1.2086838E-18
  -7.057500        1.2071279E-18
  -6.915000        1.2051423E-18
  -6.772500        1.2032047E-18
  -6.630000        1.2018259E-18
  -6.487500        1.2014359E-18
  -6.345000        1.2022860E-18
  -6.202500        1.2043944E-18
  -6.060000        1.2075404E-18
  -5.917500        1.2113107E-18
  -5.775000        1.2151873E-18
  -5.632500        1.2186552E-18
  -5.490000        1.2213020E-18
  -5.347500        1.2228973E-18
  -5.205000        1.2234323E-18
  -5.062500        1.2231180E-18
  -4.920000        1.2223424E-18
  -4.777500        1.2215917E-18
  -4.635000        1.2213539E-18
  -4.492500        1.2220146E-18
  -4.350000        1.2237702E-18
  -4.207500        1.2265734E-18
  -4.065000        1.2301320E-18
  -3.922500        1.2339570E-18
  -3.780000        1.2374597E-18
  -3.637500        1.2400716E-18
  -3.495000        1.2413643E-18
  -3.352500        1.2411388E-18
  -3.210000        1.2394669E-18
  -3.067500        1.2366783E-18
  -2.925000        1.2332973E-18
  -2.782500        1.2299434E-18
  -2.640000        1.2272183E-18
  -2.497500        1.2255976E-18
  -2.355000        1.2253498E-18
  -2.212500        1.2264908E-18
  -2.070000        1.2287853E-18
  -1.927500        1.2317956E-18
  -1.785000        1.2349707E-18
  -1.642500        1.2377605E-18
  -1.500000        1.2397318E-18
  -1.357500        1.2406602E-18
  -1.215000        1.2405803E-18
  -1.072500        1.2397741E-18
 -0.9300000        1.2387076E-18
 -0.7875000        1.2379261E-18
 -0.6450000        1.2379324E-18
 -0.5025000        1.2390764E-18
 -0.3600000        1.2414800E-18
 -0.2175000        1.2450085E-18
 -7.5000003E-02    1.2492926E-18
  6.7500003E-02    1.2537970E-18
  0.2100000        1.2579217E-18
  0.3525000        1.2611144E-18
  0.4950000        1.2629794E-18
  0.6375000        1.2633593E-18
  0.7800000        1.2623724E-18
  0.9225000        1.2603977E-18
   1.065000        1.2580056E-18
   1.207500        1.2558432E-18
   1.350000        1.2545047E-18
   1.492500        1.2544082E-18
   1.635000        1.2557076E-18
   1.777500        1.2582628E-18
   1.920000        1.2616718E-18
   2.062500        1.2653542E-18
   2.205000        1.2686672E-18
   2.347500        1.2710314E-18
   2.490000        1.2720400E-18
   2.632500        1.2715355E-18
   2.775000        1.2696387E-18
   2.917500        1.2667297E-18
   3.060000        1.2633805E-18
   3.202500        1.2602528E-18
   3.345000        1.2579746E-18
   3.487500        1.2570211E-18
   3.630000        1.2576222E-18
   3.772500        1.2597207E-18
   3.915000        1.2629871E-18
   4.057500        1.2668932E-18
   4.200000        1.2708249E-18
   4.342500        1.2742085E-18
   4.485000        1.2766215E-18
   4.627500        1.2778673E-18
   4.770000        1.2779958E-18
   4.912500        1.2772741E-18
   5.055000        1.2761172E-18
   5.197500        1.2749947E-18
   5.340000        1.2743314E-18
   5.482500        1.2744201E-18
   5.625000        1.2753605E-18
   5.767500        1.2770362E-18
   5.910000        1.2791333E-18
   6.052500        1.2812041E-18
   6.195000        1.2827634E-18
   6.337500        1.2833956E-18
   6.480000        1.2828585E-18
   6.622500        1.2811447E-18
   6.765000        1.2784979E-18
   6.907500        1.2753700E-18
   7.050000        1.2723336E-18
   7.192500        1.2699678E-18
   7.335000        1.2687460E-18
   7.477500        1.2689492E-18
   7.620000        1.2706167E-18
   7.762500        1.2735458E-18
   7.905000        1.2773342E-18
   8.047500        1.2814578E-18
   8.190000        1.2853670E-18
   8.332500        1.2885894E-18
   8.475000        1.2908187E-18
   8.617500        1.2919716E-18
   8.760000        1.2922053E-18
   8.902500        1.2918798E-18
   9.045000        1.2914820E-18
   9.187500        1.2915133E-18
   9.330000        1.2923769E-18
   9.472500        1.2942843E-18
   9.615000        1.2972040E-18
   9.757500        1.3008636E-18
   9.900000        1.3048052E-18
   10.04250        1.3084743E-18
   10.18500        1.3113299E-18
   10.32750        1.3129461E-18
   10.47000        1.3130942E-18
   10.61250        1.3117853E-18
   10.75500        1.3092712E-18
   10.89750        1.3060037E-18
   11.04000        1.3025542E-18
   11.18250        1.2995098E-18
   11.32500        1.2973650E-18
   11.46750        1.2964258E-18
   11.61000        1.2967557E-18
   11.75250        1.2981695E-18
   11.89500        1.3002808E-18
   12.03750        1.3025922E-18
   12.18000        1.3046099E-18
   12.32250        1.3059455E-18
   12.46500        1.3063966E-18
   12.60750        1.3059835E-18
   12.75000        1.3049375E-18
   12.89250        1.3036498E-18
   13.03500        1.3025906E-18
   13.17750        1.3022148E-18
   13.32000        1.3028692E-18
   13.46250        1.3047206E-18
   13.60500        1.3077101E-18
   13.74750        1.3115567E-18
   13.89000        1.3158004E-18
   14.03250        1.3198897E-18
   14.17500        1.3232915E-18
   14.31750        1.3255996E-18
   14.46000        1.3266219E-18
   14.60250        1.3264151E-18
   14.74500        1.3252721E-18
   14.88750        1.3236522E-18
   15.03000        1.3220857E-18
   15.17250        1.3210640E-18
   15.31500        1.3209461E-18
   15.45750        1.3218929E-18
   15.60000        1.3238415E-18
   15.74250        1.3265225E-18
   15.88500        1.3295092E-18
   16.02750        1.3323009E-18
   16.17000        1.3344185E-18
   16.31250        1.3355041E-18
   16.45500        1.3353996E-18
   16.59750        1.3341904E-18
   16.74000        1.3322006E-18
   16.88250        1.3299339E-18
   17.02500        1.3279725E-18
   17.16750        1.3268584E-18
   17.31000        1.3269782E-18
   17.45250        1.3284855E-18
   17.59500        1.3312699E-18
   17.73750        1.3349831E-18
   17.88000        1.3391054E-18
   18.02250        1.3430451E-18
   18.16500        1.3462433E-18
   18.30750        1.3482704E-18
   18.45000        1.3488986E-18
   18.59250        1.3481381E-18
   18.73500        1.3462340E-18
   18.87750        1.3436207E-18
   19.02000        1.3408400E-18
   19.16250        1.3384362E-18
   19.30500        1.3368498E-18
   19.44750        1.3363296E-18
   19.59000        1.3368881E-18
   19.73250        1.3383082E-18
   19.87500        1.3401997E-18
   20.01750        1.3420939E-18
   20.16000        1.3435489E-18
   20.30250        1.3442424E-18
   20.44500        1.3440374E-18
   20.58750        1.3430023E-18
   20.73000        1.3413935E-18
   20.87250        1.3395990E-18
   21.01500        1.3380602E-18
   21.15750        1.3371841E-18
   21.30000        1.3372614E-18
   21.44250        1.3384057E-18
   21.58500        1.3405259E-18
   21.72750        1.3433404E-18
   21.87000        1.3464371E-18
   22.01250        1.3493609E-18
   22.15500        1.3517157E-18
   22.29750        1.3532530E-18
   22.44000        1.3539277E-18
   22.58250        1.3539076E-18
   22.72500        1.3535325E-18
   22.86750        1.3532385E-18
   23.01000        1.3534601E-18
   23.15250        1.3545391E-18
   23.29500        1.3566495E-18
   23.43750        1.3597583E-18
   23.58000        1.3636214E-18
   23.72250        1.3678226E-18
   23.86500        1.3718422E-18
   24.00750        1.3751515E-18
   24.15000        1.3773158E-18
   24.29250        1.3780809E-18
   24.43500        1.3774322E-18
   24.57750        1.3756029E-18
   24.72000        1.3730292E-18
   24.86250        1.3702626E-18
   25.00500        1.3678555E-18
   25.14750        1.3662492E-18
   25.29000        1.3656904E-18
   25.43250        1.3661918E-18
   25.57500        1.3675421E-18
   25.71750        1.3693618E-18
   25.86000        1.3711874E-18
   26.00250        1.3725683E-18
   26.14500        1.3731586E-18
   26.28750        1.3727871E-18
   26.43000        1.3714980E-18
   26.57250        1.3695529E-18
   26.71500        1.3673890E-18
   26.85750        1.3655358E-18
   27.00000        1.3645136E-18
   27.14250        1.3647201E-18
   27.28500        1.3663421E-18
   27.42750        1.3693090E-18
   27.57000        1.3733009E-18
   27.71250        1.3778145E-18
   27.85500        1.3822639E-18
   27.99750        1.3860982E-18
   28.14000        1.3889048E-18
   28.28250        1.3904803E-18
   28.42500        1.3908543E-18
   28.56750        1.3902720E-18
   28.71000        1.3891338E-18
   28.85250        1.3879121E-18
   28.99500        1.3870575E-18
   29.13750        1.3869072E-18
   29.28000        1.3876154E-18
   29.42250        1.3891168E-18
   29.56500        1.3911347E-18
   29.70750        1.3932354E-18
   29.85000        1.3949227E-18
   29.99250        1.3957500E-18
   30.13500        1.3954272E-18
   30.27750        1.3938927E-18
   30.42000        1.3913416E-18
   30.56250        1.3881891E-18
   30.70500        1.3849933E-18
   30.84750        1.3823464E-18
   30.99000        1.3807610E-18
   31.13250        1.3805753E-18
   31.27500        1.3818899E-18
   31.41750        1.3845503E-18
   31.56000        1.3881721E-18
   31.70250        1.3922068E-18
   31.84500        1.3960402E-18
   31.98750        1.3991040E-18
   32.13000        1.4009861E-18
   32.27250        1.4015109E-18
   32.41500        1.4007758E-18
   32.55750        1.3991343E-18
   32.70000        1.3971252E-18
   32.84250        1.3953635E-18
   32.98500        1.3944163E-18
   33.12750        1.3946942E-18
   33.27000        1.3963748E-18
   33.41250        1.3993766E-18
   33.55500        1.4033782E-18
   33.69750        1.4078851E-18
   33.84000        1.4123184E-18
   33.98250        1.4161189E-18
   34.12500        1.4188421E-18
   34.26750        1.4202371E-18
   34.41000        1.4202854E-18
   34.55250        1.4192020E-18
   34.69500        1.4173863E-18
   34.83750        1.4153356E-18
   34.98000        1.4135415E-18
   35.12250        1.4123846E-18
   35.26500        1.4120587E-18
   35.40750        1.4125384E-18
   35.55000        1.4135968E-18
   35.69250        1.4148658E-18
   35.83500        1.4159268E-18
   35.97750        1.4164046E-18
   36.12000        1.4160469E-18
   36.26250        1.4147791E-18
   36.40500        1.4127247E-18
   36.54750        1.4101883E-18
   36.69000        1.4076067E-18
   36.83250        1.4054772E-18
   36.97500        1.4042685E-18
   37.11750        1.4043327E-18
   37.26000        1.4058301E-18
   37.40250        1.4086920E-18
   37.54500        1.4126279E-18
   37.68750        1.4171784E-18
   37.83000        1.4218039E-18
   37.97250        1.4259949E-18
   38.11500        1.4293628E-18
   38.25750        1.4317083E-18
   38.40000        1.4330403E-18
   38.54250        1.4335534E-18
   38.68500        1.4335680E-18
   38.82750        1.4334573E-18
   38.97000        1.4335639E-18
   39.11250        1.4341352E-18
   39.25500        1.4352729E-18
   39.39750        1.4369127E-18
   39.54000        1.4388377E-18
   39.68250        1.4407175E-18
   39.82500        1.4421813E-18
   39.96750        1.4429003E-18
   40.11000        1.4426720E-18
   40.25250        1.4414783E-18
   40.39500        1.4395069E-18
   40.53750        1.4371208E-18
   40.68000        1.4347909E-18
   40.82250        1.4329971E-18
   40.96500        1.4321332E-18
   41.10750        1.4324269E-18
   41.25000        1.4339004E-18
   41.39250        1.4363688E-18
   41.53500        1.4394796E-18
   41.67750        1.4427788E-18
   41.82000        1.4457923E-18
   41.96250        1.4481095E-18
   42.10500        1.4494538E-18
   42.24750        1.4497306E-18
   42.39000        1.4490398E-18
   42.53250        1.4476545E-18
   42.67500        1.4459567E-18
   42.81750        1.4443558E-18
   42.96000        1.4431954E-18
   43.10250        1.4426760E-18
   43.24500        1.4428158E-18
   43.38750        1.4434536E-18
   43.53000        1.4442964E-18
   43.67250        1.4449933E-18
   43.81500        1.4452243E-18
   43.95750        1.4447760E-18
   44.10000        1.4435922E-18
   44.24250        1.4417926E-18
   44.38500        1.4396564E-18
   44.52750        1.4375725E-18
   44.67000        1.4359727E-18
   44.81250        1.4352457E-18
   44.95500        1.4356605E-18
   45.09750        1.4373033E-18
   45.24000        1.4400490E-18
   45.38250        1.4435776E-18
   45.52500        1.4474297E-18
   45.66750        1.4510984E-18
   45.81000        1.4541305E-18
   45.95250        1.4562185E-18
   46.09500        1.4572561E-18
   46.23750        1.4573498E-18
   46.38000        1.4567873E-18
   46.52250        1.4559716E-18
   46.66500        1.4553352E-18
   46.80750        1.4552599E-18
   46.95000        1.4560049E-18
   47.09250        1.4576632E-18
   47.23500        1.4601437E-18
   47.37750        1.4631855E-18
   47.52000        1.4664075E-18
   47.66250        1.4693793E-18
   47.80500        1.4717102E-18
   47.94750        1.4731326E-18
   48.09000        1.4735633E-18
   48.23250        1.4731230E-18
   48.37500        1.4721071E-18
   48.51750        1.4709185E-18
   48.66000        1.4699717E-18
   48.80250        1.4695996E-18
   48.94500        1.4699843E-18
   49.08750        1.4711206E-18
   49.23000        1.4728258E-18
   49.37250        1.4747787E-18
   49.51500        1.4765854E-18
   49.65750        1.4778528E-18
   49.80000        1.4782601E-18
   49.94250        1.4776233E-18
   50.08500        1.4759362E-18
   50.22750        1.4733848E-18
   50.37000        1.4703251E-18
   50.51250        1.4672282E-18
   50.65500        1.4645890E-18
   50.79750        1.4628334E-18
   50.94000        1.4622262E-18
   51.08250        1.4628170E-18
   51.22500        1.4644352E-18
   51.36750        1.4667271E-18
   51.51000        1.4692354E-18
   51.65250        1.4714940E-18
   51.79500        1.4731159E-18
   51.93750        1.4738634E-18
   52.08000        1.4736838E-18
   52.22250        1.4727117E-18
   52.36500        1.4712434E-18
   52.50750        1.4696810E-18
   52.65000        1.4684601E-18
   52.79250        1.4679676E-18
   52.93500        1.4684625E-18
   53.07750        1.4700196E-18
   53.22000        1.4725056E-18
   53.36250        1.4756016E-18
   53.50500        1.4788663E-18
   53.64750        1.4818269E-18
   53.79000        1.4840802E-18
   53.93250        1.4853729E-18
   54.07500        1.4856506E-18
   54.21750        1.4850614E-18
   54.36000        1.4839197E-18
   54.50250        1.4826434E-18
   54.64500        1.4816720E-18
   54.78750        1.4813855E-18
   54.93000        1.4820353E-18
   55.07250        1.4836930E-18
   55.21500        1.4862328E-18
   55.35750        1.4893443E-18
   55.50000        1.4925888E-18
   55.64250        1.4954838E-18
   55.78500        1.4976000E-18
   55.92750        1.4986526E-18
   56.07000        1.4985628E-18
   56.21250        1.4974722E-18
   56.35500        1.4957095E-18
   56.49750        1.4937170E-18
   56.64000        1.4919564E-18
   56.78250        1.4908190E-18
   56.92500        1.4905534E-18
   57.06750        1.4912246E-18
   57.21000        1.4927084E-18
   57.35250        1.4947176E-18
   57.49500        1.4968551E-18
   57.63750        1.4986872E-18
   57.78000        1.4998307E-18
   57.92250        1.5000320E-18
   58.06500        1.4992328E-18
   58.20750        1.4975940E-18
   58.35000        1.4954725E-18
   58.49250        1.4933522E-18
   58.63500        1.4917405E-18
   58.77750        1.4910562E-18
   58.92000        1.4915413E-18
   59.06250        1.4932114E-18
   59.20500        1.4958597E-18
   59.34750        1.4991052E-18
   59.49000        1.5024734E-18
   59.63250        1.5054863E-18
   59.77500        1.5077485E-18
   59.91750        1.5090124E-18
   60.06000        1.5092216E-18
   60.20250        1.5085218E-18
   60.34500        1.5072380E-18
   60.48750        1.5058176E-18
   60.63000        1.5047437E-18
   60.77250        1.5044358E-18
   60.91500        1.5051524E-18
   61.05750        1.5069285E-18
   61.20000        1.5095590E-18
   61.34250        1.5126420E-18
   61.48500        1.5156636E-18
   61.62750        1.5181110E-18
   61.77000        1.5195809E-18
   61.91250        1.5198568E-18
   62.05500        1.5189453E-18
   62.19750        1.5170660E-18
   62.34000        1.5146055E-18
   62.48250        1.5120455E-18
   62.62500        1.5098781E-18
   62.76750        1.5085220E-18
   62.91000        1.5082475E-18
   63.05250        1.5091225E-18
   63.19500        1.5109949E-18
   63.33750        1.5135177E-18
   63.48000        1.5162145E-18
   63.62250        1.5185768E-18
   63.76500        1.5201735E-18
   63.90750        1.5207422E-18
   64.05000        1.5202420E-18
   64.19250        1.5188540E-18
   64.33500        1.5169398E-18
   64.47750        1.5149576E-18
   64.62000        1.5133747E-18
   64.76250        1.5125798E-18
   64.90500        1.5128201E-18
   65.04750        1.5141650E-18
   65.19000        1.5164976E-18
   65.33250        1.5195381E-18
   65.47500        1.5228922E-18
   65.61750        1.5261225E-18
   65.76000        1.5288315E-18
   65.90250        1.5307420E-18
   66.04500        1.5317480E-18
   66.18750        1.5319350E-18
   66.33000        1.5315484E-18
   66.47250        1.5309279E-18
   66.61500        1.5304221E-18
   66.75750        1.5303054E-18
   66.90000        1.5307204E-18
   67.04250        1.5316546E-18
   67.18500        1.5329552E-18
   67.32750        1.5343644E-18
   67.47000        1.5355748E-18
   67.61250        1.5362876E-18
   67.75500        1.5362717E-18
   67.89750        1.5354115E-18
   68.04000        1.5337413E-18
   68.18250        1.5314556E-18
   68.32500        1.5288890E-18
   68.46750        1.5264591E-18
   68.61000        1.5245862E-18
   68.75250        1.5236034E-18
   68.89500        1.5236826E-18
   69.03750        1.5247961E-18
   69.18000        1.5267258E-18
   69.32250        1.5291145E-18
   69.46500        1.5315454E-18
   69.60750        1.5336246E-18
   69.75000        1.5350533E-18
   69.89250        1.5356692E-18
   70.03500        1.5354684E-18
   70.17750        1.5345955E-18
   70.32000        1.5333192E-18
   70.46250        1.5319876E-18
   70.60500        1.5309706E-18
   70.74750        1.5305875E-18
   70.89000        1.5310419E-18
   71.03250        1.5323686E-18
   71.17500        1.5344173E-18
   71.31750        1.5368800E-18
   71.46000        1.5393584E-18
   71.60250        1.5414527E-18
   71.74500        1.5428517E-18
   71.88750        1.5434005E-18
   72.03000        1.5431220E-18
   72.17250        1.5422007E-18
   72.31500        1.5409369E-18
   72.45750        1.5396793E-18
   72.60000        1.5387631E-18
   72.74250        1.5384533E-18
   72.88500        1.5389035E-18
   73.02750        1.5401294E-18
   73.17000        1.5420075E-18
   73.31250        1.5442892E-18
   73.45500        1.5466518E-18
   73.59750        1.5487610E-18
   73.74000        1.5503499E-18
   73.88250        1.5512829E-18
   74.02500        1.5515887E-18
   74.16750        1.5514518E-18
   74.31000        1.5511626E-18
   74.45250        1.5510416E-18
   74.59500        1.5513564E-18
   74.73750        1.5522565E-18
   74.88000        1.5537416E-18
   75.02250        1.5556630E-18
   75.16500        1.5577540E-18
   75.30750        1.5596801E-18
   75.45000        1.5610988E-18
   75.59250        1.5617224E-18
   75.73500        1.5613788E-18
   75.87750        1.5600556E-18
   76.02000        1.5579201E-18
   76.16250        1.5553044E-18
   76.30500        1.5526529E-18
   76.44750        1.5504349E-18
   76.59000        1.5490479E-18
   76.73250        1.5487286E-18
   76.87500        1.5495015E-18
   77.01750        1.5511763E-18
   77.16000        1.5533942E-18
   77.30250        1.5557071E-18
   77.44500        1.5576687E-18
   77.58750        1.5589192E-18
   77.73000        1.5592470E-18
   77.87250        1.5586243E-18
   78.01500        1.5572109E-18
   78.15750        1.5553324E-18
   78.30000        1.5534290E-18
   78.44250        1.5519806E-18
   78.58500        1.5514161E-18
   78.72750        1.5520239E-18
   78.87000        1.5538834E-18
   79.01250        1.5568393E-18
   79.15500        1.5605312E-18
   79.29750        1.5644696E-18
   79.44000        1.5681463E-18
   79.58250        1.5711401E-18
   79.72500        1.5732010E-18
   79.86750        1.5742853E-18
   80.01000        1.5745453E-18
   80.15250        1.5742786E-18
   80.29500        1.5738563E-18
   80.43750        1.5736450E-18
   80.58000        1.5739362E-18
   80.72250        1.5748861E-18
   80.86500        1.5764799E-18
   81.00750        1.5785192E-18
   81.15000        1.5806472E-18
   81.29250        1.5824102E-18
   81.43500        1.5833498E-18
   81.57750        1.5831078E-18
   81.72000        1.5815176E-18
   81.86250        1.5786569E-18
   82.00500        1.5748430E-18
   82.14750        1.5705708E-18
   82.29000        1.5664161E-18
   82.43250        1.5629193E-18
   82.57500        1.5604884E-18
   82.71750        1.5593352E-18
   82.86000        1.5594515E-18
   83.00250        1.5606277E-18
   83.14500        1.5624988E-18
   83.28750        1.5646138E-18
   83.43000        1.5665149E-18
   83.57250        1.5678228E-18
   83.71500        1.5683068E-18
   83.85750        1.5679357E-18
   84.00000        1.5668880E-18
   84.14250        1.5655131E-18
   84.28500        1.5642542E-18
   84.42750        1.5635410E-18
   84.57000        1.5636915E-18
   84.71250        1.5648343E-18
   84.85500        1.5668844E-18
   84.99750        1.5695629E-18
   85.14000        1.5724626E-18
   85.28250        1.5751308E-18
   85.42500        1.5771545E-18
   85.56750        1.5782323E-18
   85.71000        1.5782256E-18
   85.85250        1.5771807E-18
   85.99500        1.5753271E-18
   86.13750        1.5730404E-18
   86.28000        1.5707803E-18
   86.42250        1.5690057E-18
   86.56500        1.5680826E-18
   86.70750        1.5682089E-18
   86.85000        1.5693721E-18
   86.99250        1.5713595E-18
   87.13500        1.5738125E-18
   87.27750        1.5763167E-18
   87.42000        1.5784935E-18
   87.56250        1.5800774E-18
   87.70500        1.5809614E-18
   87.84750        1.5812029E-18
   87.99000        1.5809971E-18
   88.13250        1.5806350E-18
   88.27500        1.5804444E-18
   88.41750        1.5807324E-18
   88.56000        1.5817244E-18
   88.70250        1.5835133E-18
   88.84500        1.5860268E-18
   88.98750        1.5890273E-18
   89.13000        1.5921479E-18
   89.27250        1.5949685E-18
   89.41500        1.5971117E-18
   89.55750        1.5983360E-18
   89.70000        1.5985947E-18
   89.84250        1.5980526E-18
   89.98500        1.5970454E-18
   90.12750        1.5960031E-18
   90.27000        1.5953583E-18
   90.41250        1.5954619E-18
   90.55500        1.5965182E-18
   90.69750        1.5985536E-18
   90.84000        1.6014142E-18
   90.98250        1.6047835E-18
   91.12500        1.6082299E-18
   91.26750        1.6112707E-18
   91.41000        1.6134529E-18
   91.55250        1.6144425E-18
   91.69500        1.6140966E-18
   91.83750        1.6125059E-18
   91.98000        1.6099865E-18
   92.12250        1.6070184E-18
   92.26500        1.6041452E-18
   92.40750        1.6018606E-18
   92.55000        1.6005101E-18
   92.69250        1.6002318E-18
   92.83500        1.6009457E-18
   92.97750        1.6023904E-18
   93.12000        1.6041880E-18
   93.26250        1.6059241E-18
   93.40500        1.6072275E-18
   93.54750        1.6078382E-18
   93.69000        1.6076564E-18
   93.83250        1.6067658E-18
   93.97500        1.6054245E-18
   94.11750        1.6040177E-18
   94.26000        1.6029801E-18
   94.40250        1.6026980E-18
   94.54500        1.6034164E-18
   94.68750        1.6051763E-18
   94.83000        1.6077978E-18
   94.97250        1.6109172E-18
   95.11500        1.6140680E-18
   95.25750        1.6167811E-18
   95.40000        1.6186803E-18
   95.54250        1.6195549E-18
   95.68500        1.6193934E-18
   95.82750        1.6183795E-18
   95.97000        1.6168548E-18
   96.11250        1.6152563E-18
   96.25500        1.6140367E-18
   96.39750        1.6135744E-18
   96.54000        1.6140952E-18
   96.68250        1.6156163E-18
   96.82500        1.6179312E-18
   96.96750        1.6206443E-18
   97.11000        1.6232535E-18
   97.25250        1.6252590E-18
   97.39500        1.6262764E-18
   97.53750        1.6261189E-18
   97.68000        1.6248308E-18
   97.82250        1.6226681E-18
   97.96500        1.6200365E-18
   98.10750        1.6174039E-18
   98.25000        1.6152077E-18
   98.39250        1.6137791E-18
   98.53500        1.6132871E-18
   98.67750        1.6137094E-18
   98.82000        1.6148333E-18
   98.96250        1.6162884E-18
   99.10500        1.6176093E-18
   99.24750        1.6183258E-18
   99.39000        1.6180654E-18