  -30.00000        9.8404491E-18
  -29.85750        9.8575114E-18
  -29.71500        9.8833467E-18
  -29.57250        9.9064250E-18
  -29.43000        9.9186384E-18
  -29.28750        9.9198287E-18
  -29.14500        9.9174960E-18
  -29.00250        9.9219024E-18
  -28.86000        9.9395578E-18
  -28.71750        9.9690252E-18
  -28.57500        1.0001578E-17
  -28.43250        1.0026313E-17
  -28.29000        1.0036636E-17
  -28.14750        1.0034205E-17
  -28.00500        1.0027964E-17
  -27.86250        1.0028841E-17
  -27.72000        1.0043283E-17
  -27.57750        1.0069506E-17
  -27.43500        1.0098687E-17
  -27.29250        1.0120337E-17
  -27.15000        1.0128631E-17
  -27.00750        1.0125850E-17
  -26.86500        1.0120927E-17
  -26.72250        1.0123966E-17
  -26.58000        1.0140109E-17
  -26.43750        1.0166419E-17
  -26.29500        1.0193692E-17
  -26.15250        1.0212048E-17
  -26.01000        1.0216924E-17
  -25.86750        1.0211843E-17
  -25.72500        1.0206276E-17
  -25.58250        1.0209911E-17
  -25.44000        1.0226793E-17
  -25.29750        1.0252895E-17
  -25.15500        1.0278560E-17
  -25.01250        1.0294347E-17
  -24.87000        1.0296734E-17
  -24.72750        1.0290217E-17
  -24.58500        1.0284562E-17
  -24.44250        1.0288876E-17
  -24.30000        1.0306096E-17
  -24.15750        1.0331249E-17
  -24.01500        1.0354521E-17
  -23.87250        1.0367272E-17
  -23.73000        1.0367342E-17
  -23.58750        1.0360405E-17
  -23.44500        1.0356541E-17
  -23.30250        1.0364100E-17
  -23.16000        1.0384557E-17
  -23.01750        1.0411518E-17
  -22.87500        1.0434484E-17
  -22.73250        1.0445124E-17
  -22.59000        1.0442282E-17
  -22.44750        1.0432671E-17
  -22.30500        1.0426837E-17
  -22.16250        1.0432810E-17
  -22.02000        1.0451280E-17
  -21.87750        1.0475213E-17
  -21.73500        1.0494144E-17
  -21.59250        1.0500560E-17
  -21.45000        1.0494502E-17
  -21.30750        1.0483590E-17
  -21.16500        1.0478441E-17
  -21.02250        1.0486201E-17
  -20.88000        1.0506135E-17
  -20.73750        1.0529933E-17
  -20.59500        1.0546588E-17
  -20.45250        1.0548952E-17
  -20.31000        1.0538035E-17
  -20.16750        1.0522448E-17
  -20.02500        1.0513343E-17
  -19.88250        1.0517849E-17
  -19.74000        1.0534945E-17
  -19.59750        1.0556244E-17
  -19.45500        1.0571181E-17
  -19.31250        1.0573489E-17
  -19.17000        1.0565037E-17
  -19.02750        1.0554718E-17
  -18.88500        1.0553051E-17
  -18.74250        1.0565729E-17
  -18.60000        1.0590018E-17
  -18.45750        1.0616169E-17
  -18.31500        1.0633040E-17
  -18.17250        1.0634549E-17
  -18.03000        1.0623143E-17
  -17.88750        1.0608202E-17
  -17.74500        1.0600376E-17
  -17.60250        1.0605271E-17
  -17.46000        1.0620248E-17
  -17.31750        1.0636251E-17
  -17.17500        1.0643507E-17
  -17.03250        1.0637648E-17
  -16.89000        1.0622525E-17
  -16.74750        1.0608045E-17
  -16.60500        1.0604309E-17
  -16.46250        1.0615598E-17
  -16.32000        1.0637825E-17
  -16.17750        1.0660970E-17
  -16.03500        1.0675036E-17
  -15.89250        1.0675929E-17
  -15.75000        1.0667741E-17
  -15.60750        1.0660100E-17
  -15.46500        1.0662217E-17
  -15.32250        1.0677232E-17
  -15.18000        1.0700302E-17
  -15.03750        1.0721535E-17
  -14.89500        1.0731994E-17
  -14.75250        1.0729104E-17
  -14.61000        1.0718197E-17
  -14.46750        1.0709261E-17
  -14.32500        1.0710866E-17
  -14.18250        1.0724965E-17
  -14.04000        1.0745717E-17
  -13.89750        1.0763044E-17
  -13.75500        1.0768766E-17
  -13.61250        1.0761596E-17
  -13.47000        1.0747967E-17
  -13.32750        1.0738185E-17
  -13.18500        1.0740233E-17
  -13.04250        1.0754994E-17
  -12.90000        1.0775760E-17
  -12.75750        1.0792340E-17
  -12.61500        1.0797274E-17
  -12.47250        1.0790356E-17
  -12.33000        1.0778756E-17
  -12.18750        1.0772622E-17
  -12.04500        1.0778849E-17
  -11.90250        1.0796801E-17
  -11.76000        1.0818587E-17
  -11.61750        1.0833774E-17
  -11.47500        1.0835690E-17
  -11.33250        1.0825512E-17
  -11.19000        1.0811660E-17
  -11.04750        1.0804815E-17
  -10.90500        1.0811567E-17
  -10.76250        1.0830496E-17
  -10.62000        1.0853060E-17
  -10.47750        1.0868767E-17
  -10.33500        1.0871501E-17
  -10.19250        1.0863195E-17
  -10.05000        1.0852633E-17
  -9.907500        1.0850074E-17
  -9.765000        1.0860967E-17
  -9.622500        1.0882538E-17
  -9.480000        1.0905338E-17
  -9.337500        1.0918860E-17
  -9.195000        1.0917839E-17
  -9.052500        1.0905472E-17
  -8.910000        1.0891595E-17
  -8.767500        1.0886886E-17
  -8.625000        1.0896567E-17
  -8.482500        1.0917363E-17
  -8.340000        1.0939526E-17
  -8.197500        1.0952701E-17
  -8.055000        1.0952115E-17
  -7.912500        1.0941362E-17
  -7.770000        1.0930131E-17
  -7.627500        1.0928269E-17
  -7.485000        1.0939751E-17
  -7.342500        1.0960216E-17
  -7.200000        1.0979535E-17
  -7.057500        1.0987894E-17
  -6.915000        1.0981726E-17
  -6.772500        1.0965924E-17
  -6.630000        1.0951024E-17
  -6.487500        1.0947030E-17
  -6.345000        1.0957589E-17
  -6.202500        1.0977990E-17
  -6.060000        1.0998144E-17
  -5.917500        1.1008733E-17
  -5.775000        1.1006796E-17
  -5.632500        1.0997403E-17
  -5.490000        1.0990454E-17
  -5.347500        1.0994539E-17
  -5.205000        1.1011618E-17
  -5.062500        1.1035723E-17
  -4.920000        1.1056479E-17
  -4.777500        1.1065293E-17
  -4.635000        1.1060491E-17
  -4.492500        1.1048294E-17
  -4.350000        1.1039057E-17
  -4.207500        1.1041058E-17
  -4.065000        1.1055578E-17
  -3.922500        1.1076233E-17
  -3.780000        1.1092930E-17
  -3.637500        1.1098038E-17
  -3.495000        1.1091025E-17
  -3.352500        1.1078743E-17
  -3.210000        1.1071234E-17
  -3.067500        1.1075588E-17
  -2.925000        1.1091602E-17
  -2.782500        1.1111890E-17
  -2.640000        1.1126359E-17
  -2.497500        1.1128363E-17
  -2.355000        1.1118772E-17
  -2.212500        1.1105504E-17
  -2.070000        1.1098770E-17
  -1.927500        1.1104915E-17
  -1.785000        1.1122583E-17
  -1.642500        1.1143533E-17
  -1.500000        1.1157615E-17
  -1.357500        1.1158902E-17
  -1.215000        1.1149267E-17
  -1.072500        1.1137226E-17
 -0.9300000        1.1132749E-17
 -0.7875000        1.1141178E-17
 -0.6450000        1.1159932E-17
 -0.5025000        1.1180036E-17
 -0.3600000        1.1191537E-17
 -0.2175000        1.1189575E-17
 -7.5000003E-02    1.1177400E-17
  6.7500003E-02    1.1164510E-17
  0.2100000        1.1160983E-17
  0.3525000        1.1171429E-17
  0.4950000        1.1192179E-17
  0.6375000        1.1213446E-17
  0.7800000        1.1225154E-17
  0.9225000        1.1222956E-17
   1.065000        1.1210810E-17
   1.207500        1.1198570E-17
   1.350000        1.1196027E-17
   1.492500        1.1206999E-17
   1.635000        1.1227030E-17
   1.777500        1.1246079E-17
   1.920000        1.1254609E-17
   2.062500        1.1249397E-17
   2.205000        1.1235569E-17
   2.347500        1.1223607E-17
   2.490000        1.1223125E-17
   2.632500        1.1237130E-17
   2.775000        1.1260210E-17
   2.917500        1.1281728E-17
   3.060000        1.1292120E-17
   3.202500        1.1288515E-17
   3.345000        1.1276316E-17
   3.487500        1.1265838E-17
   3.630000        1.1266017E-17
   3.772500        1.1279010E-17
   3.915000        1.1298908E-17
   4.057500        1.1315349E-17
   4.200000        1.1319814E-17
   4.342500        1.1310827E-17
   4.485000        1.1294920E-17
   4.627500        1.1282788E-17
   4.770000        1.1282946E-17
   4.912500        1.1296704E-17
   5.055000        1.1317460E-17
   5.197500        1.1334720E-17
   5.340000        1.1340399E-17
   5.482500        1.1333613E-17
   5.625000        1.1321096E-17
   5.767500        1.1313023E-17
   5.910000        1.1316789E-17
   6.052500        1.1332525E-17
   6.195000        1.1353041E-17
   6.337500        1.1368218E-17
   6.480000        1.1371172E-17
   6.622500        1.1362454E-17
   6.765000        1.1349734E-17
   6.907500        1.1343181E-17
   7.050000        1.1349331E-17
   7.192500        1.1367158E-17
   7.335000        1.1388713E-17
   7.477500        1.1403940E-17
   7.620000        1.1406746E-17
   7.762500        1.1398639E-17
   7.905000        1.1387757E-17
   8.047500        1.1383874E-17
   8.190000        1.1392430E-17
   8.332500        1.1411209E-17
   8.475000        1.1431679E-17
   8.617500        1.1444181E-17
   8.760000        1.1443802E-17
   8.902500        1.1433382E-17
   9.045000        1.1421786E-17
   9.187500        1.1418508E-17
   9.330000        1.1427853E-17
   9.472500        1.1446236E-17
   9.615000        1.1464273E-17
   9.757500        1.1472395E-17
   9.900000        1.1466624E-17
   10.04250        1.1451018E-17
   10.18500        1.1435281E-17
   10.32750        1.1428998E-17
   10.47000        1.1435928E-17
   10.61250        1.1451852E-17
   10.75500        1.1467230E-17
   10.89750        1.1473098E-17
   11.04000        1.1466625E-17
   11.18250        1.1452946E-17
   11.32500        1.1442150E-17
   11.46750        1.1443209E-17
   11.61000        1.1458508E-17
   11.75250        1.1482275E-17
   11.89500        1.1503901E-17
   12.03750        1.1514163E-17
   12.18000        1.1510649E-17
   12.32250        1.1499115E-17
   12.46500        1.1489966E-17
   12.60750        1.1491975E-17
   12.75000        1.1507001E-17
   12.89250        1.1528896E-17
   13.03500        1.1547222E-17
   13.17750        1.1553572E-17
   13.32000        1.1546659E-17
   13.46250        1.1533114E-17
   13.60500        1.1523516E-17
   13.74750        1.1526028E-17
   13.89000        1.1541462E-17
   14.03250        1.1562742E-17
   14.17500        1.1579101E-17
   14.31750        1.1582479E-17
   14.46000        1.1572308E-17
   14.60250        1.1555815E-17
   14.74500        1.1543694E-17
   14.88750        1.1543741E-17
   15.03000        1.1556288E-17
   15.17250        1.1574145E-17
   15.31500        1.1587072E-17
   15.45750        1.1588032E-17
   15.60000        1.1577488E-17
   15.74250        1.1563120E-17
   15.88500        1.1555186E-17
   16.02750        1.1560317E-17
   16.17000        1.1577497E-17
   16.31250        1.1598650E-17
   16.45500        1.1613464E-17
   16.59750        1.1615525E-17
   16.74000        1.1606098E-17
   16.88250        1.1593260E-17
   17.02500        1.1586959E-17
   17.16750        1.1592992E-17
   17.31000        1.1609533E-17
   17.45250        1.1628308E-17
   17.59500        1.1639657E-17
   17.73750        1.1638420E-17
   17.88000        1.1627062E-17
   18.02250        1.1614172E-17
   18.16500        1.1609234E-17
   18.30750        1.1616876E-17
   18.45000        1.1634072E-17
   18.59250        1.1652002E-17
   18.73500        1.1661419E-17
   18.87750        1.1658293E-17
   19.02000        1.1646280E-17
   19.16250        1.1634533E-17
   19.30500        1.1632162E-17
   19.44750        1.1642725E-17
   19.59000        1.1662057E-17
   19.73250        1.1680780E-17
   19.87500        1.1689968E-17
   20.01750        1.1686528E-17
   20.16000        1.1675045E-17
   20.30250        1.1664959E-17
   20.44500        1.1664792E-17
   20.58750        1.1676917E-17
   20.73000        1.1696058E-17
   20.87250        1.1712450E-17
   21.01500        1.1717755E-17
   21.15750        1.1710177E-17
   21.30000        1.1695644E-17
   21.44250        1.1684340E-17
   21.58500        1.1684638E-17
   21.72750        1.1698101E-17
   21.87000        1.1718540E-17
   22.01250        1.1735735E-17
   22.15500        1.1741575E-17
   22.29750        1.1734908E-17
   22.44000        1.1722199E-17
   22.58250        1.1713567E-17
   22.72500        1.1716606E-17
   22.86750        1.1731702E-17
   23.01000        1.1751695E-17
   23.15250        1.1766107E-17
   23.29500        1.1767404E-17
   23.43750        1.1755557E-17
   23.58000        1.1738117E-17
   23.72250        1.1725786E-17
   23.86500        1.1726103E-17
   24.00750        1.1739030E-17
   24.15000        1.1757083E-17
   24.29250        1.1769908E-17
   24.43500        1.1770550E-17
   24.57750        1.1759650E-17
   24.72000        1.1745047E-17
   24.86250        1.1737044E-17
   25.00500        1.1742180E-17
   25.14750        1.1759276E-17
   25.29000        1.1780097E-17
   25.43250        1.1794272E-17
   25.57500        1.1795478E-17
   25.71750        1.1785199E-17
   25.86000        1.1771807E-17
   26.00250        1.1765531E-17
   26.14500        1.1772340E-17
   26.28750        1.1790422E-17
   26.43000        1.1811329E-17
   26.57250        1.1825093E-17
   26.71500        1.1826201E-17
   26.85750        1.1816841E-17
   27.00000        1.1805475E-17
   27.14250        1.1801646E-17
   27.28500        1.1810151E-17
   27.42750        1.1828121E-17
   27.57000        1.1846749E-17
   27.71250        1.1856607E-17
   27.85500        1.1853331E-17
   27.99750        1.1840254E-17
   28.14000        1.1826389E-17
   28.28250        1.1821011E-17
   28.42500        1.1828113E-17
   28.56750        1.1844086E-17
   28.71000        1.1859997E-17
   28.85250        1.1867069E-17
   28.99500        1.1862037E-17
   29.13750        1.1849132E-17
   29.28000        1.1837496E-17
   29.42250        1.1835622E-17
   29.56500        1.1846185E-17
   29.70750        1.1864414E-17
   29.85000        1.1880983E-17
   29.99250        1.1887667E-17
   30.13500        1.1882334E-17
   30.27750        1.1870234E-17
   30.42000        1.1860803E-17
   30.56250        1.1861909E-17
   30.70500        1.1875029E-17
   30.84750        1.1894291E-17
   30.99000        1.1909967E-17
   31.13250        1.1914323E-17
   31.27500        1.1906271E-17
   31.41750        1.1892027E-17
   31.56000        1.1881357E-17
   31.70250        1.1881677E-17
   31.84500        1.1893569E-17
   31.98750        1.1910445E-17
   32.13000        1.1922565E-17
   32.27250        1.1922979E-17
   32.41500        1.1911814E-17
   32.55750        1.1896274E-17
   32.70000        1.1886346E-17
   32.84250        1.1888769E-17
   32.98500        1.1902911E-17
   33.12750        1.1921052E-17
   33.27000        1.1932927E-17
   33.41250        1.1931823E-17
   33.55500        1.1918567E-17
   33.69750        1.1901015E-17
   33.84000        1.1889351E-17
   33.98250        1.1890011E-17
   34.12500        1.1901883E-17
   34.26750        1.1917082E-17
   34.41000        1.1925808E-17
   34.55250        1.1922378E-17
   34.69500        1.1908789E-17
   34.83750        1.1893650E-17
   34.98000        1.1887119E-17
   35.12250        1.1894861E-17
   35.26500        1.1914669E-17
   35.40750        1.1937756E-17
   35.55000        1.1953958E-17
   35.69250        1.1957723E-17
   35.83500        1.1951320E-17
   35.97750        1.1943347E-17
   36.12000        1.1943463E-17
   36.26250        1.1956512E-17
   36.40500        1.1979576E-17
   36.54750        1.2003698E-17
   36.69000        1.2019233E-17
   36.83250        1.2021594E-17
   36.97500        1.2013927E-17
   37.11750        1.2005139E-17
   37.26000        1.2004458E-17
   37.40250        1.2015835E-17
   37.54500        1.2035533E-17
   37.68750        1.2054353E-17
   37.83000        1.2063146E-17
   37.97250        1.2058273E-17
   38.11500        1.2043747E-17
   38.25750        1.2028781E-17
   38.40000        1.2022251E-17
   38.54250        1.2027410E-17
   38.68500        1.2040048E-17
   38.82750        1.2051170E-17
   38.97000        1.2052550E-17
   39.11250        1.2041793E-17
   39.25500        1.2023830E-17
   39.39750        1.2007969E-17
   39.54000        1.2002290E-17
   39.68250        1.2008789E-17
   39.82500        1.2022219E-17
   39.96750        1.2033306E-17
   40.11000        1.2034399E-17
   40.25250        1.2024126E-17
   40.39500        1.2008222E-17
   40.53750        1.1996054E-17
   40.68000        1.1994930E-17
   40.82250        1.2005653E-17
   40.96500        1.2022017E-17
   41.10750        1.2034542E-17
   41.25000        1.2036200E-17
   41.39250        1.2026649E-17
   41.53500        1.2012427E-17
   41.67750        1.2002963E-17
   41.82000        1.2004856E-17
   41.96250        1.2017853E-17
   42.10500        1.2035016E-17
   42.24750        1.2046948E-17
   42.39000        1.2047554E-17
   42.53250        1.2037822E-17
   42.67500        1.2025333E-17
   42.81750        1.2019745E-17
   42.96000        1.2026989E-17
   43.10250        1.2045645E-17
   43.24500        1.2067712E-17
   43.38750        1.2083343E-17
   43.53000        1.2086661E-17
   43.67250        1.2079217E-17
   43.81500        1.2068958E-17
   43.95750        1.2065347E-17
   44.10000        1.2073575E-17
   44.24250        1.2091355E-17
   44.38500        1.2110246E-17
   44.52750        1.2120725E-17
   44.67000        1.2117961E-17
   44.81250        1.2104808E-17
   44.95500        1.2090203E-17
   45.09750        1.2083904E-17
   45.24000        1.2090715E-17
   45.38250        1.2107651E-17
   45.52500        1.2125757E-17
   45.66750        1.2135468E-17
   45.81000        1.2132323E-17
   45.95250        1.2119590E-17
   46.09500        1.2106247E-17
   46.23750        1.2101533E-17
   46.38000        1.2109367E-17
   46.52250        1.2125958E-17
   46.66500        1.2142078E-17
   46.80750        1.2148596E-17
   46.95000        1.2141965E-17
   47.09250        1.2126376E-17
   47.23500        1.2111264E-17
   47.37750        1.2105707E-17
   47.52000        1.2113043E-17
   47.66250        1.2128963E-17
   47.80500        1.2144172E-17
   47.94750        1.2150022E-17
   48.09000        1.2143712E-17
   48.23250        1.2129935E-17
   48.37500        1.2118012E-17
   48.51750        1.2116245E-17
   48.66000        1.2126929E-17
   48.80250        1.2144981E-17
   48.94500        1.2161048E-17
   49.08750        1.2167144E-17
   49.23000        1.2161450E-17
   49.37250        1.2149369E-17
   49.51500        1.2140211E-17
   49.65750        1.2141532E-17
   49.80000        1.2154556E-17
   49.94250        1.2173420E-17
   50.08500        1.2188716E-17
   50.22750        1.2193146E-17
   50.37000        1.2185888E-17
   50.51250        1.2173040E-17
   50.65500        1.2163877E-17
   50.79750        1.2165221E-17
   50.94000        1.2177320E-17
   51.08250        1.2193730E-17
   51.22500        1.2205281E-17
   51.36750        1.2205675E-17
   51.51000        1.2195350E-17
   51.65250        1.2181230E-17
   51.79500        1.2172529E-17
   51.93750        1.2175141E-17
   52.08000        1.2188012E-17
   52.22250        1.2203731E-17
   52.36500        1.2212967E-17
   52.50750        1.2210102E-17
   52.65000        1.2196637E-17
   52.79250        1.2180321E-17
   52.93500        1.2170508E-17
   53.07750        1.2172557E-17
   53.22000        1.2184648E-17
   53.36250        1.2198959E-17
   53.50500        1.2206480E-17
   53.64750        1.2202563E-17
   53.79000        1.2189836E-17
   53.93250        1.2176683E-17
   54.07500        1.2172207E-17
   54.21750        1.2180684E-17
   54.36000        1.2198873E-17
   54.50250        1.2217829E-17
   54.64500        1.2228152E-17
   54.78750        1.2225547E-17
   54.93000        1.2213339E-17
   55.07250        1.2200457E-17
   55.21500        1.2196048E-17
   55.35750        1.2204013E-17
   55.50000        1.2220696E-17
   55.64250        1.2237150E-17
   55.78500        1.2244602E-17
   55.92750        1.2239831E-17
   56.07000        1.2227194E-17
   56.21250        1.2216084E-17
   56.35500        1.2215315E-17
   56.49750        1.2227810E-17
   56.64000        1.2248771E-17
   56.78250        1.2268464E-17
   56.92500        1.2277935E-17
   57.06750        1.2274260E-17
   57.21000        1.2262189E-17
   57.35250        1.2251220E-17
   57.49500        1.2249855E-17
   57.63750        1.2260510E-17
   57.78000        1.2278100E-17
   57.92250        1.2293154E-17
   58.06500        1.2297545E-17
   58.20750        1.2289407E-17
   58.35000        1.2274244E-17
   58.49250        1.2261624E-17
   58.63500        1.2259411E-17
   58.77750        1.2269047E-17
   58.92000        1.2284703E-17
   59.06250        1.2296809E-17
   59.20500        1.2297839E-17
   59.34750        1.2286854E-17
   59.49000        1.2270094E-17
   59.63250        1.2257275E-17
   59.77500        1.2255816E-17
   59.91750        1.2266493E-17
   60.06000        1.2283082E-17
   60.20250        1.2296209E-17
   60.34500        1.2299028E-17
   60.48750        1.2291295E-17
   60.63000        1.2279402E-17
   60.77250        1.2272358E-17
   60.91500        1.2276192E-17
   61.05750        1.2290172E-17
   61.20000        1.2307167E-17
   61.34250        1.2317913E-17
   61.48500        1.2316617E-17
   61.62750        1.2304508E-17
   61.77000        1.2289175E-17
   61.91250        1.2280084E-17
   62.05500        1.2282986E-17
   62.19750        1.2296573E-17
   62.34000        1.2313389E-17
   62.48250        1.2324425E-17
   62.62500        1.2324601E-17
   62.76750        1.2315804E-17
   62.91000        1.2305637E-17
   63.05250        1.2302656E-17
   63.19500        1.2310999E-17
   63.33750        1.2327674E-17
   63.48000        1.2344212E-17
   63.62250        1.2351697E-17
   63.76500        1.2346137E-17
   63.90750        1.2330949E-17
   64.05000        1.2315010E-17
   64.19250        1.2307425E-17
   64.33500        1.2312162E-17
   64.47750        1.2325763E-17
   64.62000        1.2339516E-17
   64.76250        1.2344791E-17
   64.90500        1.2338288E-17
   65.04750        1.2324063E-17
   65.19000        1.2311057E-17
   65.33250        1.2307658E-17
   65.47500        1.2316549E-17
   65.61750        1.2332992E-17
   65.76000        1.2347618E-17
   65.90250        1.2352038E-17
   66.04500        1.2343948E-17
   66.18750        1.2328609E-17
   66.33000        1.2315806E-17
   66.47250        1.2314085E-17
   66.61500        1.2325699E-17
   66.75750        1.2345303E-17
   66.90000        1.2363168E-17
   67.04250        1.2370996E-17
   67.18500        1.2366833E-17
   67.32750        1.2356161E-17
   67.47000        1.2348494E-17
   67.61250        1.2351559E-17
   67.75500        1.2366554E-17
   67.89750        1.2387351E-17
   68.04000        1.2404122E-17
   68.18250        1.2409212E-17
   68.32500        1.2401723E-17
   68.46750        1.2388060E-17
   68.61000        1.2378094E-17
   68.75250        1.2379258E-17
   68.89500        1.2392099E-17
   69.03750        1.2409948E-17
   69.18000        1.2422917E-17
   69.32250        1.2423774E-17
   69.46500        1.2412223E-17
   69.60750        1.2394998E-17
   69.75000        1.2381776E-17
   69.89250        1.2379378E-17
   70.03500        1.2387765E-17
   70.17750        1.2400226E-17
   70.32000        1.2407615E-17
   70.46250        1.2404058E-17
   70.60500        1.2390657E-17
   70.74750        1.2374945E-17
   70.89000        1.2366425E-17
   71.03250        1.2370869E-17
   71.17500        1.2386825E-17
   71.31750        1.2406429E-17
   71.46000        1.2420013E-17
   71.60250        1.2421763E-17
   71.74500        1.2412998E-17
   71.88750        1.2401136E-17
   72.03000        1.2395021E-17
   72.17250        1.2399453E-17
   72.31500        1.2412272E-17
   72.45750        1.2425732E-17
   72.60000        1.2431333E-17
   72.74250        1.2425155E-17
   72.88500        1.2410417E-17
   73.02750        1.2395700E-17
   73.17000        1.2389866E-17
   73.31250        1.2396746E-17
   73.45500        1.2412805E-17
   73.59750        1.2429212E-17
   73.74000        1.2437052E-17
   73.88250        1.2432586E-17
   74.02500        1.2419351E-17
   74.16750        1.2405875E-17
   74.31000        1.2400386E-17
   74.45250        1.2405758E-17
   74.59500        1.2417750E-17
   74.73750        1.2427631E-17
   74.88000        1.2427599E-17
   75.02250        1.2415694E-17
   75.16500        1.2397211E-17
   75.30750        1.2381705E-17
   75.45000        1.2377362E-17
   75.59250        1.2386124E-17
   75.73500        1.2402493E-17
   75.87750        1.2416786E-17
   76.02000        1.2420883E-17
   76.16250        1.2413036E-17
   76.30500        1.2398851E-17
   76.44750        1.2387850E-17
   76.59000        1.2387696E-17
   76.73250        1.2399552E-17
   76.87500        1.2417387E-17
   77.01750        1.2431637E-17
   77.16000        1.2435033E-17
   77.30250        1.2427059E-17
   77.44500        1.2414331E-17
   77.58750        1.2406663E-17
   77.73000        1.2411142E-17
   77.87250        1.2427784E-17
   78.01500        1.2449389E-17
   78.15750        1.2465696E-17
   78.30000        1.2469373E-17
   78.44250        1.2460267E-17
   78.58500        1.2445377E-17
   78.72750        1.2434595E-17
   78.87000        1.2434783E-17
   79.01250        1.2445719E-17
   79.15500        1.2460372E-17
   79.29750        1.2469278E-17
   79.44000        1.2466371E-17
   79.58250        1.2452756E-17
   79.72500        1.2436115E-17
   79.86750        1.2426131E-17
   80.01000        1.2428667E-17
   80.15250        1.2442212E-17
   80.29500        1.2458735E-17
   80.43750        1.2468441E-17
   80.58000        1.2465557E-17
   80.72250        1.2451721E-17
   80.86500        1.2434918E-17
   81.00750        1.2424673E-17
   81.15000        1.2426371E-17
   81.29250        1.2438148E-17
   81.43500        1.2452172E-17
   81.57750        1.2459514E-17
   81.72000        1.2455624E-17
   81.86250        1.2443089E-17
   82.00500        1.2430012E-17
   82.14750        1.2425003E-17
   82.29000        1.2431841E-17
   82.43250        1.2447048E-17
   82.57500        1.2461872E-17
   82.71750        1.2467471E-17
   82.86000        1.2460200E-17
   83.00250        1.2443802E-17
   83.14500        1.2427188E-17
   83.28750        1.2419154E-17
   83.43000        1.2423233E-17
   83.57250        1.2435761E-17
   83.71500        1.2448316E-17
   83.85750        1.2452997E-17
   84.00000        1.2447337E-17
   84.14250        1.2435828E-17
   84.28500        1.2427146E-17
   84.42750        1.2428748E-17
   84.57000        1.2442146E-17
   84.71250        1.2461763E-17
   84.85500        1.2478090E-17
   84.99750        1.2483281E-17
   85.14000        1.2475828E-17
   85.28250        1.2461459E-17
   85.42500        1.2449743E-17
   85.56750        1.2448402E-17
   85.71000        1.2458761E-17
   85.85250        1.2475070E-17
   85.99500        1.2488091E-17
   86.13750        1.2490782E-17
   86.28000        1.2482605E-17
   86.42250        1.2469865E-17
   86.56500        1.2461843E-17
   86.70750        1.2465064E-17
   86.85000        1.2479183E-17
   86.99250        1.2497007E-17
   87.13500        1.2508683E-17
   87.27750        1.2507560E-17
   87.42000        1.2494216E-17
   87.56250        1.2476206E-17
   87.70500        1.2463665E-17
   87.84750        1.2463388E-17
   87.99000        1.2474899E-17
   88.13250        1.2490877E-17
   88.27500        1.2501646E-17
   88.41750        1.2501030E-17
   88.56000        1.2490035E-17
   88.70250        1.2476158E-17
   88.84500        1.2468738E-17
   88.98750        1.2473176E-17
   89.13000        1.2487506E-17
   89.27250        1.2503432E-17
   89.41500        1.2511199E-17
   89.55750        1.2505415E-17
   89.70000        1.2488320E-17
   89.84250        1.2468543E-17
   89.98500        1.2456086E-17
   90.12750        1.2456528E-17
   90.27000        1.2467908E-17
   90.41250        1.2482107E-17
   90.55500        1.2489880E-17
   90.69750        1.2486479E-17
   90.84000        1.2474473E-17
   90.98250        1.2462115E-17
   91.12500        1.2458241E-17
   91.26750        1.2466827E-17
   91.41000        1.2484480E-17
   91.55250        1.2502401E-17
   91.69500        1.2511621E-17
   91.83750        1.2508356E-17
   91.98000        1.2496246E-17
   92.12250        1.2484156E-17
   92.26500        1.2480852E-17
   92.40750        1.2489756E-17
   92.55000        1.2506950E-17
   92.69250        1.2523583E-17
   92.83500        1.2531206E-17
   92.97750        1.2526811E-17
   93.12000        1.2514534E-17
   93.26250        1.2503010E-17
   93.40500        1.2500034E-17
   93.54750        1.2507771E-17
   93.69000        1.2521444E-17
   93.83250        1.2532288E-17
   93.97500        1.2532969E-17
   94.11750        1.2522175E-17
   94.26000        1.2505572E-17
   94.40250        1.2492524E-17
   94.54500        1.2490546E-17
   94.68750        1.2500834E-17
   94.83000        1.2517558E-17
   94.97250        1.2531366E-17
   95.11500        1.2534952E-17
   95.25750        1.2527348E-17
   95.40000        1.2514340E-17
   95.54250        1.2504789E-17
   95.68500        1.2505092E-17
   95.82750        1.2515191E-17
   95.97000        1.2528544E-17
   96.11250        1.2536122E-17
   96.25500        1.2532002E-17
   96.39750        1.2517152E-17
   96.54000        1.2499089E-17
   96.68250        1.2487565E-17
   96.82500        1.2488836E-17
   96.96750        1.2501973E-17
   97.11000        1.2519416E-17
   97.25250        1.2531469E-17
   97.39500        1.2532026E-17
   97.53750        1.2522112E-17
   97.68000        1.2509101E-17
   97.82250        1.2502112E-17
   97.96500        1.2506369E-17
   98.10750        1.2519940E-17
   98.25000        1.2534864E-17
   98.39250        1.2541975E-17
   98.53500        1.2536538E-17
   98.67750        1.2521273E-17
   98.82000        1.2504928E-17
   98.96250        1.2497196E-17
   99.10500        1.2503026E-17
   99.24750        1.2519700E-17
   99.39000        1.2538452E-17