  -30.000000        4.89664411E-18
  -29.857500        4.90199184E-18
  -29.715000        4.91176994E-18
  -29.572500        4.92439065E-18
  -29.430000        4.93790388E-18
  -29.287500        4.95037901E-18
  -29.145000        4.96027292E-18
  -29.002501        4.96671913E-18
  -28.860001        4.96968127E-18
  -28.717501        4.96993521E-18
  -28.575001        4.96889007E-18
  -28.432501        4.96827920E-18
  -28.290001        4.96979376E-18
  -28.147499        4.97472252E-18
  -28.004999        4.98367096E-18
  -27.862499        4.99642733E-18
  -27.719999        5.01199114E-18
  -27.577499        5.02876471E-18
  -27.434999        5.04486702E-18
  -27.292500        5.05850640E-18
  -27.150000        5.06834324E-18
  -27.007500        5.07375589E-18
  -26.865000        5.07496812E-18
  -26.722500        5.07300481E-18
  -26.580000        5.06948971E-18
  -26.437500        5.06632450E-18
  -26.295000        5.06530872E-18
  -26.152500        5.06778944E-18
  -26.010000        5.07439572E-18
  -25.867500        5.08492118E-18
  -25.725000        5.09837444E-18
  -25.582500        5.11318015E-18
  -25.440001        5.12750443E-18
  -25.297501        5.13962180E-18
  -25.155001        5.14826667E-18
  -25.012501        5.15288606E-18
  -24.870001        5.15374922E-18
  -24.727501        5.15188848E-18
  -24.584999        5.14888871E-18
  -24.442499        5.14655854E-18
  -24.299999        5.14656226E-18
  -24.157499        5.15008067E-18
  -24.014999        5.15756914E-18
  -23.872499        5.16866660E-18
  -23.730000        5.18226917E-18
  -23.587500        5.19675475E-18
  -23.445000        5.21031183E-18
  -23.302500        5.22130672E-18
  -23.160000        5.22861279E-18
  -23.017500        5.23183879E-18
  -22.875000        5.23141238E-18
  -22.732500        5.22849037E-18
  -22.590000        5.22473166E-18
  -22.447500        5.22195688E-18
  -22.305000        5.22178400E-18
  -22.162500        5.22529828E-18
  -22.020000        5.23283182E-18
  -21.877501        5.24389536E-18
  -21.735001        5.25727915E-18
  -21.592501        5.27129820E-18
  -21.450001        5.28413646E-18
  -21.307501        5.29421441E-18
  -21.165001        5.30050843E-18
  -21.022499        5.30275588E-18
  -20.879999        5.30150518E-18
  -20.737499        5.29800290E-18
  -20.594999        5.29393565E-18
  -20.452499        5.29109181E-18
  -20.309999        5.29099296E-18
  -20.167500        5.29458706E-18
  -20.025000        5.30205278E-18
  -19.882500        5.31276394E-18
  -19.740000        5.32541815E-18
  -19.597500        5.33830273E-18
  -19.455000        5.34965247E-18
  -19.312500        5.35801361E-18
  -19.170000        5.36255359E-18
  -19.027500        5.36323767E-18
  -18.885000        5.36084133E-18
  -18.742500        5.35680262E-18
  -18.600000        5.35292976E-18
  -18.457500        5.35103221E-18
  -18.315001        5.35255422E-18
  -18.172501        5.35827169E-18
  -18.030001        5.36812755E-18
  -17.887501        5.38122761E-18
  -17.745001        5.39600767E-18
  -17.602501        5.41053379E-18
  -17.459999        5.42287740E-18
  -17.317499        5.43149869E-18
  -17.174999        5.43554898E-18
  -17.032499        5.43504398E-18
  -16.889999        5.43086010E-18
  -16.747499        5.42456567E-18
  -16.605000        5.41810787E-18
  -16.462500        5.41342934E-18
  -16.320000        5.41208227E-18
  -16.177500        5.41492736E-18
  -16.035000        5.42197205E-18
  -15.892500        5.43237756E-18
  -15.750000        5.44463928E-18
  -15.607500        5.45689396E-18
  -15.465000        5.46729658E-18
  -15.322500        5.47439379E-18
  -15.180000        5.47741093E-18
  -15.037500        5.47640591E-18
  -14.895000        5.47225387E-18
  -14.752500        5.46646692E-18
  -14.610000        5.46088138E-18
  -14.467500        5.45728191E-18
  -14.325000        5.45703210E-18
  -14.182500        5.46079287E-18
  -14.040000        5.46837853E-18
  -13.897500        5.47879191E-18
  -13.755000        5.49042414E-18
  -13.612500        5.50137601E-18
  -13.470000        5.50984137E-18
  -13.327500        5.51446945E-18
  -13.185000        5.51463820E-18
  -13.042500        5.51058005E-18
  -12.900000        5.50334139E-18
  -12.757500        5.49458031E-18
  -12.615000        5.48624770E-18
  -12.472500        5.48020639E-18
  -12.330000        5.47787457E-18
  -12.187500        5.47995203E-18
  -12.045000        5.48629527E-18
  -11.902500        5.49595715E-18
  -11.760000        5.50739499E-18
  -11.617500        5.51878981E-18
  -11.475000        5.52842812E-18
  -11.332500        5.53504846E-18
  -11.190000        5.53810241E-18
  -11.047500        5.53785385E-18
  -10.905000        5.53531647E-18
  -10.762500        5.53203380E-18
  -10.620000        5.52975409E-18
  -10.477500        5.53005477E-18
  -10.335000        5.53401035E-18
  -10.192500        5.54194963E-18
  -10.050000        5.55336762E-18
  -9.9075003        5.56700038E-18
  -9.7650003        5.58105170E-18
  -9.6225004        5.59353261E-18
  -9.4799995        5.60264484E-18
  -9.3374996        5.60712981E-18
  -9.1949997        5.60651894E-18
  -9.0524998        5.60122705E-18
  -8.9099998        5.59247300E-18
  -8.7674999        5.58204225E-18
  -8.6250000        5.57193865E-18
  -8.4825001        5.56400227E-18
  -8.3400002        5.55956196E-18
  -8.1975002        5.55919676E-18
  -8.0550003        5.56265438E-18
  -7.9124999        5.56892565E-18
  -7.7700000        5.57647904E-18
  -7.6275001        5.58358287E-18
  -7.4850001        5.58867210E-18
  -7.3425002        5.59066726E-18
  -7.1999998        5.58920481E-18
  -7.0574999        5.58470742E-18
  -6.9150000        5.57830753E-18
  -6.7725000        5.57160695E-18
  -6.6300001        5.56635187E-18
  -6.4875002        5.56406555E-18
  -6.3449998        5.56573397E-18
  -6.2024999        5.57159330E-18
  -6.0599999        5.58107941E-18
  -5.9175000        5.59293911E-18
  -5.7750001        5.60548082E-18
  -5.6325002        5.61691411E-18
  -5.4899998        5.62570332E-18
  -5.3474998        5.63086700E-18
  -5.2049999        5.63216815E-18
  -5.0625000        5.63014818E-18
  -4.9200001        5.62601021E-18
  -4.7775002        5.62136641E-18
  -4.6350002        5.61790384E-18
  -4.4924998        5.61703861E-18
  -4.3499999        5.61961527E-18
  -4.2075000        5.62573269E-18
  -4.0650001        5.63471380E-18
  -3.9224999        5.64524960E-18
  -3.7800000        5.65566711E-18
  -3.6375000        5.66428220E-18
  -3.4949999        5.66975524E-18
  -3.3525000        5.67137486E-18
  -3.2100000        5.66921550E-18
  -3.0675001        5.66413041E-18
  -2.9250000        5.65758989E-18
  -2.7825000        5.65138893E-18
  -2.6400001        5.64729398E-18
  -2.4974999        5.64668931E-18
  -2.3550000        5.65029457E-18
  -2.2125001        5.65801589E-18
  -2.0699999        5.66894915E-18
  -1.9275000        5.68154959E-18
  -1.7850000        5.69392959E-18
  -1.6425000        5.70422923E-18
  -1.5000000        5.71098358E-18
  -1.3575000        5.71341714E-18
  -1.2150000        5.71159652E-18
  -1.0725000        5.70641464E-18
 -0.93000001        5.69940553E-18
 -0.78750002        5.69243322E-18
 -0.64499998        5.68731463E-18
 -0.50250000        5.68546050E-18
 -0.36000001        5.68759711E-18
 -0.21750000        5.69362519E-18
 -7.50000030E-02    5.70265180E-18
  6.75000027E-02    5.71316775E-18
  0.20999999        5.72335158E-18
  0.35249999        5.73143520E-18
  0.49500000        5.73605542E-18
  0.63749999        5.73653436E-18
  0.77999997        5.73301843E-18
  0.92250001        5.72645392E-18
   1.0650001        5.71839884E-18
   1.2075000        5.71071019E-18
   1.3500000        5.70516808E-18
   1.4924999        5.70311419E-18
   1.6350000        5.70518793E-18
   1.7775000        5.71120361E-18
   1.9200000        5.72019837E-18
   2.0625000        5.73063573E-18
   2.2049999        5.74072155E-18
   2.3475001        5.74876588E-18
   2.4900000        5.75351762E-18
   2.6324999        5.75441387E-18
   2.7750001        5.75168582E-18
   2.9175000        5.74631411E-18
   3.0599999        5.73982943E-18
   3.2025001        5.73400773E-18
   3.3450000        5.73050917E-18
   3.4875000        5.73053771E-18
   3.6300001        5.73459751E-18
   3.7725000        5.74238418E-18
   3.9150000        5.75285463E-18
   4.0574999        5.76443888E-18
   4.1999998        5.77536842E-18
   4.3425002        5.78404224E-18
   4.4850001        5.78935273E-18
   4.6275001        5.79090411E-18
   4.7700000        5.78908762E-18
   4.9124999        5.78499473E-18
   5.0549998        5.78018799E-18
   5.1975002        5.77638420E-18
   5.3400002        5.77509917E-18
   5.4825001        5.77733794E-18
   5.6250000        5.78337925E-18
   5.7674999        5.79270116E-18
   5.9099998        5.80407365E-18
   6.0524998        5.81579232E-18
   6.1950002        5.82601834E-18
   6.3375001        5.83314740E-18
   6.4800000        5.83614179E-18
   6.6224999        5.83474717E-18
   6.7649999        5.82955082E-18
   6.9074998        5.82186962E-18
   7.0500002        5.81349276E-18
   7.1925001        5.80633475E-18
   7.3350000        5.80206402E-18
   7.4775000        5.80178857E-18
   7.6199999        5.80585333E-18
   7.7624998        5.81378186E-18
   7.9050002        5.82438342E-18
   8.0474997        5.83598876E-18
   8.1899996        5.84678430E-18
   8.3325005        5.85516984E-18
   8.4750004        5.86007378E-18
   8.6175003        5.86116483E-18
   8.7600002        5.85890456E-18
   8.9025002        5.85444565E-18
   9.0450001        5.84937710E-18
   9.1875000        5.84538223E-18
   9.3299999        5.84388214E-18
   9.4724998        5.84573626E-18
   9.6149998        5.85106289E-18
   9.7574997        5.85922013E-18
   9.8999996        5.86893785E-18
   10.042500        5.87857905E-18
   10.185000        5.88647242E-18
   10.327500        5.89125146E-18
   10.470000        5.89212951E-18
   10.612500        5.88906894E-18
   10.755000        5.88279933E-18
   10.897500        5.87468345E-18
   11.040000        5.86645217E-18
   11.182500        5.85986368E-18
   11.325000        5.85635106E-18
   11.467500        5.85672990E-18
   11.610000        5.86103952E-18
   11.752500        5.86853791E-18
   11.895000        5.87786933E-18
   12.037500        5.88735048E-18
   12.180000        5.89532574E-18
   12.322500        5.90050927E-18
   12.465000        5.90224717E-18
   12.607500        5.90064823E-18
   12.750000        5.89655782E-18
   12.892500        5.89138836E-18
   13.035000        5.88683142E-18
   13.177500        5.88451862E-18
   13.320000        5.88567999E-18
   13.462500        5.89088543E-18
   13.605000        5.89990460E-18
   13.747500        5.91173369E-18
   13.890000        5.92477544E-18
   14.032500        5.93715254E-18
   14.175000        5.94708160E-18
   14.317500        5.95323334E-18
   14.460000        5.95500434E-18
   14.602500        5.95263984E-18
   14.745000        5.94717921E-18
   14.887500        5.94025074E-18
   15.030000        5.93374580E-18
   15.172500        5.92944818E-18
   15.315000        5.92869048E-18
   15.457500        5.93209805E-18
   15.600000        5.93947361E-18
   15.742500        5.94983859E-18
   15.885000        5.96162096E-18
   16.027500        5.97296615E-18
   16.170000        5.98210608E-18
   16.312500        5.98770775E-18
   16.455000        5.98915077E-18
   16.597500        5.98664937E-18
   16.740000        5.98120901E-18
   16.882500        5.97441868E-18
   17.025000        5.96811887E-18
   17.167500        5.96402846E-18
   17.309999        5.96338947E-18
   17.452499        5.96672921E-18
   17.594999        5.97375983E-18
   17.737499        5.98344653E-18
   17.879999        5.99422180E-18
   18.022499        6.00429686E-18
   18.165001        6.01201652E-18
   18.307501        6.01618882E-18
   18.450001        6.01631910E-18
   18.592501        6.01271301E-18
   18.735001        6.00642271E-18
   18.877501        5.99903764E-18
   19.020000        5.99236643E-18
   19.162500        5.98806799E-18
   19.305000        5.98731484E-18
   19.447500        5.99055367E-18
   19.590000        5.99742009E-18
   19.732500        6.00682720E-18
   19.875000        6.01719550E-18
   20.017500        6.02678376E-18
   20.160000        6.03404351E-18
   20.302500        6.03792671E-18
   20.445000        6.03808801E-18
   20.587500        6.03494597E-18
   20.730000        6.02959535E-18
   20.872499        6.02358299E-18
   21.014999        6.01860129E-18
   21.157499        6.01614250E-18
   21.299999        6.01719260E-18
   21.442499        6.02202003E-18
   21.584999        6.03011441E-18
   21.727501        6.04028087E-18
   21.870001        6.05088615E-18
   22.012501        6.06019524E-18
   22.155001        6.06673286E-18
   22.297501        6.06958871E-18
   22.440001        6.06860022E-18
   22.582500        6.06437912E-18
   22.725000        6.05818147E-18
   22.867500        6.05164840E-18
   23.010000        6.04647935E-18
   23.152500        6.04409169E-18
   23.295000        6.04534694E-18
   23.437500        6.05037289E-18
   23.580000        6.05853923E-18
   23.722500        6.06856714E-18
   23.865000        6.07878489E-18
   24.007500        6.08745457E-18
   24.150000        6.09312696E-18
   24.292500        6.09494303E-18
   24.434999        6.09281304E-18
   24.577499        6.08744133E-18
   24.719999        6.08017951E-18
   24.862499        6.07275102E-18
   25.004999        6.06689789E-18
   25.147499        6.06403336E-18
   25.290001        6.06496518E-18
   25.432501        6.06975166E-18
   25.575001        6.07770417E-18
   25.717501        6.08753356E-18
   25.860001        6.09761317E-18
   26.002501        6.10630064E-18
   26.145000        6.11226295E-18
   26.287500        6.11474491E-18
   26.430000        6.11372334E-18
   26.572500        6.10991707E-18
   26.715000        6.10464297E-18
   26.857500        6.09954712E-18
   27.000000        6.09625659E-18
   27.142500        6.09603905E-18
   27.285000        6.09952933E-18
   27.427500        6.10659842E-18
   27.570000        6.11638190E-18
   27.712500        6.12745992E-18
   27.855000        6.13815122E-18
   27.997499        6.14685358E-18
   28.139999        6.15235929E-18
   28.282499        6.15408893E-18
   28.424999        6.15220420E-18
   28.567499        6.14757157E-18
   28.709999        6.14159354E-18
   28.852501        6.13593190E-18
   28.995001        6.13217774E-18
   29.137501        6.13152385E-18
   29.280001        6.13451783E-18
   29.422501        6.14093924E-18
   29.565001        6.14984094E-18
   29.707500        6.15974064E-18
   29.850000        6.16893310E-18
   29.992500        6.17584791E-18
   30.135000        6.17937336E-18
   30.277500        6.17908302E-18
   30.420000        6.17531769E-18
   30.562500        6.16910929E-18
   30.705000        6.16196410E-18
   30.847500        6.15556669E-18
   30.990000        6.15144071E-18
   31.132500        6.15065323E-18
   31.275000        6.15359882E-18
   31.417500        6.15991476E-18
   31.559999        6.16854598E-18
   31.702499        6.17794688E-18
   31.844999        6.18639116E-18
   31.987499        6.19232783E-18
   32.130001        6.19470970E-18
   32.272499        6.19321871E-18
   32.415001        6.18834372E-18
   32.557499        6.18128208E-18
   32.700001        6.17369848E-18
   32.842499        6.16738627E-18
   32.985001        6.16390922E-18
   33.127499        6.16429261E-18
   33.270000        6.16882970E-18
   33.412498        6.17702540E-18
   33.555000        6.18769562E-18
   33.697498        6.19919012E-18
   33.840000        6.20970069E-18
   33.982498        6.21760564E-18
   34.125000        6.22178001E-18
   34.267502        6.22181723E-18
   34.410000        6.21811064E-18
   34.552502        6.21177733E-18
   34.695000        6.20443238E-18
   34.837502        6.19785960E-18
   34.980000        6.19364429E-18
   35.122501        6.19285475E-18
   35.264999        6.19583963E-18
   35.407501        6.20217294E-18
   35.549999        6.21076652E-18
   35.692501        6.22010663E-18
   35.834999        6.22856868E-18
   35.977501        6.23474276E-18
   36.119999        6.23770696E-18
   36.262501        6.23720817E-18
   36.404999        6.23370630E-18
   36.547501        6.22828868E-18
   36.689999        6.22245582E-18
   36.832500        6.21782319E-18
   36.974998        6.21579164E-18
   37.117500        6.21725409E-18
   37.259998        6.22240412E-18
   37.402500        6.23069040E-18
   37.544998        6.24093214E-18
   37.687500        6.25156844E-18
   37.830002        6.26099334E-18
   37.972500        6.26788334E-18
   38.115002        6.27147123E-18
   38.257500        6.27168713E-18
   38.400002        6.26915968E-18
   38.542500        6.26507754E-18
   38.685001        6.26093791E-18
   38.827499        6.25824999E-18
   38.970001        6.25822269E-18
   39.112499        6.26151818E-18
   39.255001        6.26810213E-18
   39.397499        6.27723213E-18
   39.540001        6.28759009E-18
   39.682499        6.29754024E-18
   39.825001        6.30546050E-18
   39.967499        6.31008651E-18
   40.110001        6.31078092E-18
   40.252499        6.30767114E-18
   40.395000        6.30162817E-18
   40.537498        6.29408180E-18
   40.680000        6.28672610E-18
   40.822498        6.28117613E-18
   40.965000        6.27864661E-18
   41.107498        6.27972070E-18
   41.250000        6.28423752E-18
   41.392502        6.29133349E-18
   41.535000        6.29960778E-18
   41.677502        6.30739445E-18
   41.820000        6.31309248E-18
   41.962502        6.31548551E-18
   42.105000        6.31400031E-18
   42.247501        6.30883746E-18
   42.389999        6.30095195E-18
   42.532501        6.29186661E-18
   42.674999        6.28337271E-18
   42.817501        6.27716430E-18
   42.959999        6.27450202E-18
   43.102501        6.27597110E-18
   43.244999        6.28138334E-18
   43.387501        6.28984043E-18
   43.529999        6.29993286E-18
   43.672501        6.31002984E-18
   43.814999        6.31859613E-18
   43.957500        6.32448896E-18
   44.099998        6.32716158E-18
   44.242500        6.32676247E-18
   44.384998        6.32409564E-18
   44.527500        6.32045439E-18
   44.669998        6.31735287E-18
   44.812500        6.31620351E-18
   44.955002        6.31801172E-18
   45.097500        6.32314603E-18
   45.240002        6.33125282E-18
   45.382500        6.34132209E-18
   45.525002        6.35189924E-18
   45.667500        6.36139073E-18
   45.810001        6.36839488E-18
   45.952499        6.37197864E-18
   46.095001        6.37185663E-18
   46.237499        6.36843541E-18
   46.380001        6.36271918E-18
   46.522499        6.35611787E-18
   46.665001        6.35017044E-18
   46.807499        6.34625705E-18
   46.950001        6.34533391E-18
   47.092499        6.34774514E-18
   47.235001        6.35314953E-18
   47.377499        6.36058464E-18
   47.520000        6.36866371E-18
   47.662498        6.37586887E-18
   47.805000        6.38087538E-18
   47.947498        6.38284655E-18
   48.090000        6.38161157E-18
   48.232498        6.37770811E-18
   48.375000        6.37226236E-18
   48.517502        6.36675251E-18
   48.660000        6.36270305E-18
   48.802502        6.36138039E-18
   48.945000        6.36354098E-18
   49.087502        6.36927996E-18
   49.230000        6.37800465E-18
   49.372501        6.38852763E-18
   49.514999        6.39928098E-18
   49.657501        6.40859586E-18
   49.799999        6.41502388E-18
   49.942501        6.41762288E-18
   50.084999        6.41615463E-18
   50.227501        6.41114481E-18
   50.369999        6.40378539E-18
   50.512501        6.39569267E-18
   50.654999        6.38858429E-18
   50.797501        6.38393223E-18
   50.939999        6.38267739E-18
   51.082500        6.38506671E-18
   51.224998        6.39062908E-18
   51.367500        6.39829746E-18
   51.509998        6.40663379E-18
   51.652500        6.41411687E-18
   51.794998        6.41944102E-18
   51.937500        6.42176664E-18
   52.080002        6.42088818E-18
   52.222500        6.41728125E-18
   52.365002        6.41201914E-18
   52.507500        6.40655934E-18
   52.650002        6.40244949E-18
   52.792500        6.40100193E-18
   52.935001        6.40300949E-18
   53.077499        6.40857849E-18
   53.220001        6.41710837E-18
   53.362499        6.42742414E-18
   53.505001        6.43803025E-18
   53.647499        6.44742165E-18
   53.790001        6.45438320E-18
   53.932499        6.45821139E-18
   54.075001        6.45883467E-18
   54.217499        6.45679857E-18
   54.360001        6.45314450E-18
   54.502499        6.44919016E-18
   54.645000        6.44626773E-18
   54.787498        6.44544138E-18
   54.930000        6.44728392E-18
   55.072498        6.45173912E-18
   55.215000        6.45811792E-18
   55.357498        6.46523746E-18
   55.500000        6.47167127E-18
   55.642502        6.47606939E-18
   55.785000        6.47746195E-18
   55.927502        6.47548416E-18
   56.070000        6.47045946E-18
   56.212502        6.46333908E-18
   56.355000        6.45550486E-18
   56.497501        6.44849574E-18
   56.639999        6.44371133E-18
   56.782501        6.44214713E-18
   56.924999        6.44421136E-18
   57.067501        6.44964925E-18
   57.209999        6.45758398E-18
   57.352501        6.46667510E-18
   57.494999        6.47536794E-18
   57.637501        6.48219798E-18
   57.779999        6.48609110E-18
   57.922501        6.48659154E-18
   58.064999        6.48396607E-18
   58.207500        6.47915602E-18
   58.349998        6.47357296E-18
   58.492500        6.46879889E-18
   58.634998        6.46624828E-18
   58.777500        6.46687570E-18
   58.919998        6.47098885E-18
   59.062500        6.47819814E-18
   59.205002        6.48750641E-18
   59.347500        6.49750454E-18
   59.490002        6.50664240E-18
   59.632500        6.51351627E-18
   59.775002        6.51713643E-18
   59.917500        6.51712030E-18
   60.060001        6.51378180E-18
   60.202499        6.50808542E-18
   60.345001        6.50146756E-18
   60.487499        6.49555570E-18
   60.630001        6.49182843E-18
   60.772499        6.49130854E-18
   60.915001        6.49434595E-18
   61.057499        6.50055559E-18
   61.200001        6.50891012E-18
   61.342499        6.51797023E-18
   61.485001        6.52619323E-18
   61.627499        6.53224943E-18
   61.770000        6.53527857E-18
   61.912498        6.53505275E-18
   62.055000        6.53200872E-18
   62.197498        6.52716682E-18
   62.340000        6.52193490E-18
   62.482498        6.51783829E-18
   62.625000        6.51621909E-18
   62.767502        6.51795244E-18
   62.910000        6.52324764E-18
   63.052502        6.53157900E-18
   63.195000        6.54177152E-18
   63.337502        6.55223577E-18
   63.480000        6.56129174E-18
   63.622501        6.56752579E-18
   63.764999        6.57007558E-18
   63.907501        6.56879717E-18
   64.050003        6.56427290E-18
   64.192497        6.55767531E-18
   64.334999        6.55052061E-18
   64.477501        6.54436846E-18
   64.620003        6.54052248E-18
   64.762497        6.53978877E-18
   64.904999        6.54232325E-18
   65.047501        6.54760108E-18
   65.190002        6.55450928E-18
   65.332497        6.56156720E-18
   65.474998        6.56722718E-18
   65.617500        6.57020834E-18
   65.760002        6.56978524E-18
   65.902496        6.56596077E-18
   66.044998        6.55948435E-18
   66.187500        6.55169810E-18
   66.330002        6.54425348E-18
   66.472504        6.53877051E-18
   66.614998        6.53650693E-18
   66.757500        6.53811497E-18
   66.900002        6.54353176E-18
   67.042503        6.55200085E-18
   67.184998        6.56222480E-18
   67.327499        6.57260509E-18
   67.470001        6.58153492E-18
   67.612503        6.58769742E-18
   67.754997        6.59031338E-18
   67.897499        6.58929967E-18
   68.040001        6.58529446E-18
   68.182503        6.57953563E-18
   68.324997        6.57360681E-18
   68.467499        6.56910405E-18
   68.610001        6.56729459E-18
   68.752502        6.56885672E-18
   68.894997        6.57374371E-18
   69.037498        6.58122142E-18
   69.180000        6.59004082E-18
   69.322502        6.59871340E-18
   69.464996        6.60581309E-18
   69.607498        6.61025132E-18
   69.750000        6.61147638E-18
   69.892502        6.60957055E-18
   70.035004        6.60523282E-18
   70.177498        6.59964935E-18
   70.320000        6.59427516E-18
   70.462502        6.59054954E-18
   70.605003        6.58960490E-18
   70.747498        6.59202275E-18
   70.889999        6.59769679E-18
   71.032501        6.60584783E-18
   71.175003        6.61518256E-18
   71.317497        6.62417484E-18
   71.459999        6.63138786E-18
   71.602501        6.63577233E-18
   71.745003        6.63686379E-18
   71.887497        6.63485498E-18
   72.029999        6.63053007E-18
   72.172501        6.62509177E-18
   72.315002        6.61992189E-18
   72.457497        6.61631869E-18
   72.599998        6.61525783E-18
   72.742500        6.61720212E-18
   72.885002        6.62200597E-18
   73.027496        6.62892948E-18
   73.169998        6.63677363E-18
   73.312500        6.64412065E-18
   73.455002        6.64963133E-18
   73.597504        6.65234034E-18
   73.739998        6.65186926E-18
   73.882500        6.64850884E-18
   74.025002        6.64315078E-18
   74.167503        6.63708175E-18
   74.309998        6.63170756E-18
   74.452499        6.62825781E-18
   74.595001        6.62754850E-18
   74.737503        6.62983731E-18
   74.879997        6.63478757E-18
   75.022499        6.64154191E-18
   75.165001        6.64888273E-18
   75.307503        6.65546088E-18
   75.449997        6.66005132E-18
   75.592499        6.66180577E-18
   75.735001        6.66043885E-18
   75.877502        6.65631205E-18
   76.019997        6.65038489E-18
   76.162498        6.64402221E-18
   76.305000        6.63871047E-18
   76.447502        6.63573800E-18
   76.589996        6.63592163E-18
   76.732498        6.63944211E-18
   76.875000        6.64582588E-18
   77.017502        6.65406170E-18
   77.160004        6.66282155E-18
   77.302498        6.67072815E-18
   77.445000        6.67661230E-18
   77.587502        6.67972871E-18
   77.730003        6.67988670E-18
   77.872498        6.67748870E-18
   78.014999        6.67345992E-18
   78.157501        6.66908206E-18
   78.300003        6.66574025E-18
   78.442497        6.66464010E-18
   78.584999        6.66654055E-18
   78.727501        6.67157891E-18
   78.870003        6.67922867E-18
   79.012497        6.68841369E-18
   79.154999        6.69773808E-18
   79.297501        6.70579441E-18
   79.440002        6.71145687E-18
   79.582497        6.71410137E-18
   79.724998        6.71371135E-18
   79.867500        6.71085510E-18
   80.010002        6.70655665E-18
   80.152496        6.70209319E-18
   80.294998        6.69875055E-18
   80.437500        6.69757926E-18
   80.580002        6.69919061E-18
   80.722504        6.70362264E-18
   80.864998        6.71031123E-18
   81.007500        6.71818764E-18
   81.150002        6.72588704E-18
   81.292503        6.73203382E-18
   81.434998        6.73554354E-18
   81.577499        6.73585870E-18
   81.720001        6.73306407E-18
   81.862503        6.72785986E-18
   82.004997        6.72139090E-18
   82.147499        6.71499472E-18
   82.290001        6.70992328E-18
   82.432503        6.70710011E-18
   82.574997        6.70695329E-18
   82.717499        6.70935128E-18
   82.860001        6.71363525E-18
   83.002502        6.71874557E-18
   83.144997        6.72342204E-18
   83.287498        6.72644952E-18
   83.430000        6.72691067E-18
   83.572502        6.72439522E-18
   83.714996        6.71911326E-18
   83.857498        6.71187667E-18
   84.000000        6.70394442E-18
   84.142502        6.69675663E-18
   84.285004        6.69162977E-18
   84.427498        6.68947413E-18
   84.570000        6.69061730E-18
   84.712502        6.69475196E-18
   84.855003        6.70102406E-18
   84.997498        6.70821556E-18
   85.139999        6.71498397E-18
   85.282501        6.72011373E-18
   85.425003        6.72273383E-18
   85.567497        6.72247037E-18
   85.709999        6.71952230E-18
   85.852501        6.71463655E-18
   85.995003        6.70897450E-18
   86.137497        6.70389189E-18
   86.279999        6.70065927E-18
   86.422501        6.70018612E-18
   86.565002        6.70281821E-18
   86.707497        6.70824865E-18
   86.849998        6.71559195E-18
   86.992500        6.72357631E-18
   87.135002        6.73082158E-18
   87.277496        6.73612712E-18
   87.419998        6.73870337E-18
   87.562500        6.73830964E-18
   87.705002        6.73527719E-18
   87.847504        6.73043322E-18
   87.989998        6.72494281E-18
   88.132500        6.72009884E-18
   88.275002        6.71708956E-18
   88.417503        6.71677647E-18
   88.559998        6.71952147E-18
   88.702499        6.72510122E-18
   88.845001        6.73274106E-18
   88.987503        6.74127177E-18
   89.129997        6.74938310E-18
   89.272499        6.75591493E-18
   89.415001        6.76011743E-18
   89.557503        6.76181066E-18
   89.699997        6.76140866E-18
   89.842499        6.75981096E-18
   89.985001        6.75819216E-18
   90.127502        6.75774590E-18
   90.269997        6.75944327E-18
   90.412498        6.76383974E-18
   90.555000        6.77096714E-18
   90.697502        6.78031428E-18
   90.839996        6.79090261E-18
   90.982498        6.80144833E-18
   91.125000        6.81059488E-18
   91.267502        6.81717510E-18
   91.410004        6.82045901E-18
   91.552498        6.82032087E-18
   91.695000        6.81728512E-18
   91.837502        6.81242709E-18
   91.980003        6.80714513E-18