  -30.000000        9.78447028E-19
  -29.857500        9.80199823E-19
  -29.715000        9.83398221E-19
  -29.572500        9.87514375E-19
  -29.430000        9.91906497E-19
  -29.287500        9.95948929E-19
  -29.145000        9.99149704E-19
  -29.002501        1.00123999E-18
  -28.860001        1.00221586E-18
  -28.717501        1.00232742E-18
  -28.575001        1.00202137E-18
  -28.432501        1.00184714E-18
  -28.290001        1.00234490E-18
  -28.147499        1.00393422E-18
  -28.004999        1.00682036E-18
  -27.862499        1.01094602E-18
  -27.719999        1.01599276E-18
  -27.577499        1.02143912E-18
  -27.434999        1.02666421E-18
  -27.292500        1.03107629E-18
  -27.150000        1.03423715E-18
  -27.007500        1.03595004E-18
  -26.865000        1.03630087E-18
  -26.722500        1.03563705E-18
  -26.580000        1.03449224E-18
  -26.437500        1.03347873E-18
  -26.295000        1.03316844E-18
  -26.152500        1.03398331E-18
  -26.010000        1.03611744E-18
  -25.867500        1.03950402E-18
  -25.725000        1.04382862E-18
  -25.582500        1.04859039E-18
  -25.440001        1.05320006E-18
  -25.297501        1.05709743E-18
  -25.155001        1.05986538E-18
  -25.012501        1.06131946E-18
  -24.870001        1.06154911E-18
  -24.727501        1.06089863E-18
  -24.584999        1.05989278E-18
  -24.442499        1.05912712E-18
  -24.299999        1.05913881E-18
  -24.157499        1.06029634E-18
  -24.014999        1.06272805E-18
  -23.872499        1.06629961E-18
  -23.730000        1.07064706E-18
  -23.587500        1.07525291E-18
  -23.445000        1.07954918E-18
  -23.302500        1.08302820E-18
  -23.160000        1.08534347E-18
  -23.017500        1.08637704E-18
  -22.875000        1.08626785E-18
  -22.732500        1.08538514E-18
  -22.590000        1.08425842E-18
  -22.447500        1.08346908E-18
  -22.305000        1.08352626E-18
  -22.162500        1.08475918E-18
  -22.020000        1.08724485E-18
  -21.877501        1.09079222E-18
  -21.735001        1.09498520E-18
  -21.592501        1.09927413E-18
  -21.450001        1.10309260E-18
  -21.307501        1.10597543E-18
  -21.165001        1.10765367E-18
  -21.022499        1.10810428E-18
  -20.879999        1.10755679E-18
  -20.737499        1.10644475E-18
  -20.594999        1.10532402E-18
  -20.452499        1.10476288E-18
  -20.309999        1.10523065E-18
  -20.167500        1.10699917E-18
  -20.025000        1.11008217E-18
  -19.882500        1.11422728E-18
  -19.740000        1.11896072E-18
  -19.597500        1.12368774E-18
  -19.455000        1.12781506E-18
  -19.312500        1.13088039E-18
  -19.170000        1.13265262E-18
  -19.027500        1.13318285E-18
  -18.885000        1.13279035E-18
  -18.742500        1.13199946E-18
  -18.600000        1.13142902E-18
  -18.457500        1.13166993E-18
  -18.315001        1.13316641E-18
  -18.172501        1.13612926E-18
  -18.030001        1.14048757E-18
  -17.887501        1.14589547E-18
  -17.745001        1.15178717E-18
  -17.602501        1.15747590E-18
  -17.459999        1.16228254E-18
  -17.317499        1.16566540E-18
  -17.174999        1.16732690E-18
  -17.032499        1.16727809E-18
  -16.889999        1.16583704E-18
  -16.747499        1.16356715E-18
  -16.605000        1.16116285E-18
  -16.462500        1.15931234E-18
  -16.320000        1.15856271E-18
  -16.177500        1.15922301E-18
  -16.035000        1.16131216E-18
  -15.892500        1.16457125E-18
  -15.750000        1.16851990E-18
  -15.607500        1.17255757E-18
  -15.465000        1.17607909E-18
  -15.322500        1.17859082E-18
  -15.180000        1.17980595E-18
  -15.037500        1.17969666E-18
  -14.895000        1.17850004E-18
  -14.752500        1.17666887E-18
  -14.610000        1.17477473E-18
  -14.467500        1.17338579E-18
  -14.325000        1.17294294E-18
  -14.182500        1.17366155E-18
  -14.040000        1.17548507E-18
  -13.897500        1.17809762E-18
  -13.755000        1.18099399E-18
  -13.612500        1.18358896E-18
  -13.470000        1.18534082E-18
  -13.327500        1.18586381E-18
  -13.185000        1.18500840E-18
  -13.042500        1.18289371E-18
  -12.900000        1.17989177E-18
  -12.757500        1.17656361E-18
  -12.615000        1.17355825E-18
  -12.472500        1.17149651E-18
  -12.330000        1.17085317E-18
  -12.187500        1.17186367E-18
  -12.045000        1.17447818E-18
  -11.902500        1.17836769E-18
  -11.760000        1.18299060E-18
  -11.617500        1.18770263E-18
  -11.475000        1.19188579E-18
  -11.332500        1.19506960E-18
  -11.190000        1.19701823E-18
  -11.047500        1.19776632E-18
  -10.905000        1.19759571E-18
  -10.762500        1.19696674E-18
  -10.620000        1.19641708E-18
  -10.477500        1.19645069E-18
  -10.335000        1.19743379E-18
  -10.192500        1.19952077E-18
  -10.050000        1.20262011E-18
  -9.9075003        1.20640611E-18
  -9.7650003        1.21037948E-18
  -9.6225004        1.21396013E-18
  -9.4799995        1.21660659E-18
  -9.3374996        1.21792760E-18
  -9.1949997        1.21776206E-18
  -9.0524998        1.21621461E-18
  -8.9099998        1.21363247E-18
  -8.7674999        1.21053188E-18
  -8.6250000        1.20749013E-18
  -8.4825001        1.20503010E-18
  -8.3400002        1.20352132E-18
  -8.1975002        1.20311776E-18
  -8.0550003        1.20374125E-18
  -7.9124999        1.20510837E-18
  -7.7700000        1.20679902E-18
  -7.6275001        1.20834482E-18
  -7.4850001        1.20932720E-18
  -7.3425002        1.20946575E-18
  -7.1999998        1.20868231E-18
  -7.0574999        1.20712256E-18
  -6.9150000        1.20513494E-18
  -6.7725000        1.20319862E-18
  -6.6300001        1.20182374E-18
  -6.4875002        1.20143889E-18
  -6.3449998        1.20229482E-18
  -6.2024999        1.20440878E-18
  -6.0599999        1.20755827E-18
  -5.9175000        1.21132949E-18
  -5.7750001        1.21520494E-18
  -5.6325002        1.21866855E-18
  -5.4899998        1.22130901E-18
  -5.3474998        1.22289741E-18
  -5.2049999        1.22342629E-18
  -5.0625000        1.22310834E-18
  -4.9200001        1.22233100E-18
  -4.7775002        1.22158167E-18
  -4.6350002        1.22134727E-18
  -4.4924998        1.22201294E-18
  -4.3499999        1.22377349E-18
  -4.2075000        1.22658074E-18
  -4.0650001        1.23014113E-18
  -3.9224999        1.23396570E-18
  -3.7800000        1.23746530E-18
  -3.6375000        1.24007319E-18
  -3.4949999        1.24136153E-18
  -3.3525000        1.24113219E-18
  -3.2100000        1.23945798E-18
  -3.0675001        1.23666945E-18
  -2.9250000        1.23329093E-18
  -2.7825000        1.22994095E-18
  -2.6400001        1.22722087E-18
  -2.4974999        1.22560549E-18
  -2.3550000        1.22536189E-18
  -2.2125001        1.22650567E-18
  -2.0699999        1.22879965E-18
  -1.9275000        1.23180718E-18
  -1.7850000        1.23497766E-18
  -1.6425000        1.23776215E-18
  -1.5000000        1.23972795E-18
  -1.3575000        1.24065274E-18
  -1.2150000        1.24057115E-18
  -1.0725000        1.23976579E-18
 -0.93000001        1.23870276E-18
 -0.78750002        1.23792562E-18
 -0.64499998        1.23793669E-18
 -0.50250000        1.23908512E-18
 -0.36000001        1.24149119E-18
 -0.21750000        1.24501922E-18
 -7.50000030E-02    1.24929977E-18
  6.75000027E-02    1.25379953E-18
  0.20999999        1.25791827E-18
  0.35249999        1.26110560E-18
  0.49500000        1.26296676E-18
  0.63749999        1.26334437E-18
  0.77999997        1.26235754E-18
  0.92250001        1.26038544E-18
   1.0650001        1.25799716E-18
   1.2075000        1.25584019E-18
   1.3500000        1.25450770E-18
   1.4924999        1.25441547E-18
   1.6350000        1.25571652E-18
   1.7775000        1.25827158E-18
   1.9200000        1.26167760E-18
   2.0625000        1.26535535E-18
   2.2049999        1.26866283E-18
   2.3475001        1.27102195E-18
   2.4900000        1.27202728E-18
   2.6324999        1.27152208E-18
   2.7750001        1.26962639E-18
   2.9175000        1.26672082E-18
   3.0599999        1.26337694E-18
   3.2025001        1.26025443E-18
   3.3450000        1.25798083E-18
   3.4875000        1.25702977E-18
   3.6300001        1.25763175E-18
   3.7725000        1.25972855E-18
   3.9150000        1.26299168E-18
   4.0574999        1.26689421E-18
   4.1999998        1.27082270E-18
   4.3425002        1.27420318E-18
   4.4850001        1.27661441E-18
   4.6275001        1.27786066E-18
   4.7700000        1.27799012E-18
   4.9124999        1.27727078E-18
   5.0549998        1.27611624E-18
   5.1975002        1.27499572E-18
   5.3400002        1.27433367E-18
   5.4825001        1.27442269E-18
   5.6250000        1.27536216E-18
   5.7674999        1.27703576E-18
   5.9099998        1.27913028E-18
   6.0524998        1.28119927E-18
   6.1950002        1.28275747E-18
   6.3375001        1.28339026E-18
   6.4800000        1.28285466E-18
   6.6224999        1.28114343E-18
   6.7649999        1.27850018E-18
   6.9074998        1.27537509E-18
   7.0500002        1.27234058E-18
   7.1925001        1.26997587E-18
   7.3350000        1.26875392E-18
   7.4775000        1.26895606E-18
   7.6199999        1.27062170E-18
   7.7624998        1.27354919E-18
   7.9050002        1.27733633E-18
   8.0474997        1.28145921E-18
   8.1899996        1.28536857E-18
   8.3325005        1.28859230E-18
   8.4750004        1.29082320E-18
   8.6175003        1.29197743E-18
   8.7600002        1.29221121E-18
   8.9025002        1.29188479E-18
   9.0450001        1.29148474E-18
   9.1875000        1.29151307E-18
   9.3299999        1.29237365E-18
   9.4724998        1.29427772E-18
   9.6149998        1.29719477E-18
   9.7574997        1.30085339E-18
   9.8999996        1.30479573E-18
   10.042500        1.30846728E-18
   10.185000        1.31132663E-18
   10.327500        1.31294698E-18
   10.470000        1.31309949E-18
   10.612500        1.31179378E-18
   10.755000        1.30928164E-18
   10.897500        1.30601448E-18
   11.040000        1.30256390E-18
   11.182500        1.29951749E-18
   11.325000        1.29737024E-18
   11.467500        1.29642859E-18
   11.610000        1.29675667E-18
   11.752500        1.29816888E-18
   11.895000        1.30027974E-18
   12.037500        1.30259264E-18
   12.180000        1.30461106E-18
   12.322500        1.30594727E-18
   12.465000        1.30639819E-18
   12.607500        1.30598346E-18
   12.750000        1.30493532E-18
   12.892500        1.30364574E-18
   13.035000        1.30258437E-18
   13.177500        1.30220593E-18
   13.320000        1.30285868E-18
   13.462500        1.30470815E-18
   13.605000        1.30769614E-18
   13.747500        1.31154201E-18
   13.890000        1.31578534E-18
   14.032500        1.31987513E-18
   14.175000        1.32327795E-18
   14.317500        1.32558857E-18
   14.460000        1.32661303E-18
   14.602500        1.32640862E-18
   14.745000        1.32526763E-18
   14.887500        1.32365028E-18
   15.030000        1.32208567E-18
   15.172500        1.32106596E-18
   15.315000        1.32094943E-18
   15.457500        1.32189728E-18
   15.600000        1.32384653E-18
   15.742500        1.32652732E-18
   15.885000        1.32951416E-18
   16.027500        1.33230600E-18
   16.170000        1.33442400E-18
   16.312500        1.33551029E-18
   16.455000        1.33540638E-18
   16.597500        1.33419766E-18
   16.740000        1.33220808E-18
   16.882500        1.32994058E-18
   17.025000        1.32797809E-18
   17.167500        1.32686181E-18
   17.309999        1.32697886E-18
   17.452499        1.32848391E-18
   17.594999        1.33126655E-18
   17.737499        1.33497800E-18
   17.879999        1.33909912E-18
   18.022499        1.34303877E-18
   18.165001        1.34623769E-18
   18.307501        1.34826614E-18
   18.450001        1.34889614E-18
   18.592501        1.34813679E-18
   18.735001        1.34623448E-18
   18.877501        1.34362194E-18
   19.020000        1.34084095E-18
   19.162500        1.33843717E-18
   19.305000        1.33685022E-18
   19.447500        1.33632993E-18
   19.590000        1.33688931E-18
   19.732500        1.33831020E-18
   19.875000        1.34020361E-18
   20.017500        1.34209951E-18
   20.160000        1.34355535E-18
   20.302500        1.34424884E-18
   20.445000        1.34404287E-18
   20.587500        1.34300579E-18
   20.730000        1.34139465E-18
   20.872499        1.33959729E-18
   21.014999        1.33805635E-18
   21.157499        1.33717882E-18
   21.299999        1.33725647E-18
   21.442499        1.33840170E-18
   21.584999        1.34052373E-18
   21.727501        1.34334121E-18
   21.870001        1.34644159E-18
   22.012501        1.34936888E-18
   22.155001        1.35172665E-18
   22.297501        1.35326541E-18
   22.440001        1.35394019E-18
   22.582500        1.35391971E-18
   22.725000        1.35354366E-18
   22.867500        1.35324804E-18
   23.010000        1.35346818E-18
   23.152500        1.35454599E-18
   23.295000        1.35665613E-18
   23.437500        1.35976499E-18
   23.580000        1.36362844E-18
   23.722500        1.36782876E-18
   23.865000        1.37184679E-18
   24.007500        1.37515375E-18
   24.150000        1.37731424E-18
   24.292500        1.37807484E-18
   24.434999        1.37742147E-18
   24.577499        1.37558657E-18
   24.719999        1.37300763E-18
   24.862499        1.37023627E-18
   25.004999        1.36782503E-18
   25.147499        1.36621637E-18
   25.290001        1.36565658E-18
   25.432501        1.36615764E-18
   25.575001        1.36750791E-18
   25.717501        1.36932740E-18
   25.860001        1.37115299E-18
   26.002501        1.37253417E-18
   26.145000        1.37312488E-18
   26.287500        1.37275503E-18
   26.430000        1.37146918E-18
   26.572500        1.36952944E-18
   26.715000        1.36737184E-18
   26.857500        1.36552651E-18
   27.000000        1.36451331E-18
   27.142500        1.36472952E-18
   27.285000        1.36636123E-18
   27.427500        1.36933774E-18
   27.570000        1.37333923E-18
   27.712500        1.37786173E-18
   27.855000        1.38231962E-18
   27.997499        1.38616187E-18
   28.139999        1.38897646E-18
   28.282499        1.39056040E-18
   28.424999        1.39094380E-18
   28.567499        1.39037036E-18
   28.709999        1.38924074E-18
   28.852501        1.38802685E-18
   28.995001        1.38717713E-18
   29.137501        1.38702834E-18
   29.280001        1.38773465E-18
   29.422501        1.38922968E-18
   29.565001        1.39123652E-18
   29.707500        1.39332267E-18
   29.850000        1.39499233E-18
   29.992500        1.39579925E-18
   30.135000        1.39545411E-18
   30.277500        1.39389715E-18
   30.420000        1.39132162E-18
   30.562500        1.38814400E-18
   30.705000        1.38492203E-18
   30.847500        1.38224662E-18
   30.990000        1.38063082E-18
   31.132500        1.38041214E-18
   31.275000        1.38169334E-18
   31.417500        1.38431964E-18
   31.559999        1.38790805E-18
   31.702499        1.39191160E-18
   31.844999        1.39571818E-18
   31.987499        1.39876190E-18
   32.130001        1.40063091E-18
   32.272499        1.40115111E-18
   32.415001        1.40041957E-18
   32.557499        1.39878982E-18
   32.700001        1.39680055E-18
   32.842499        1.39506492E-18
   32.985001        1.39414933E-18
   33.127499        1.39446325E-18
   33.270000        1.39618513E-18
   33.412498        1.39923277E-18
   33.555000        1.40328647E-18
   33.697498        1.40785106E-18
   33.840000        1.41234844E-18
   33.982498        1.41621768E-18
   34.125000        1.41901573E-18
   34.267502        1.42048852E-18
   34.410000        1.42061611E-18
   34.552502        1.41961026E-18
   34.695000        1.41786688E-18
   34.837502        1.41588154E-18
   34.980000        1.41414405E-18
   35.122501        1.41303356E-18
   35.264999        1.41274311E-18
   35.407501        1.41324707E-18
   35.549999        1.41431837E-18
   35.692501        1.41559027E-18
   35.834999        1.41664337E-18
   35.977501        1.41710287E-18
   36.119999        1.41671492E-18
   36.262501        1.41540570E-18
   36.404999        1.41329660E-18
   36.547501        1.41069150E-18
   36.689999        1.40802663E-18
   36.832500        1.40580028E-18
   36.974998        1.40448299E-18
   37.117500        1.40442747E-18
   37.259998        1.40579841E-18
   37.402500        1.40852997E-18
   37.544998        1.41233449E-18
   37.687500        1.41675546E-18
   37.830002        1.42125759E-18
   37.972500        1.42533187E-18
   38.115002        1.42859282E-18
   38.257500        1.43084141E-18
   38.400002        1.43208735E-18
   38.542500        1.43252607E-18
   38.685001        1.43247912E-18
   38.827499        1.43232000E-18
   38.970001        1.43239444E-18
   39.112499        1.43294979E-18
   39.255001        1.43409037E-18
   39.397499        1.43575342E-18
   39.540001        1.43772252E-18
   39.682499        1.43966794E-18
   39.825001        1.44121725E-18
   39.967499        1.44204102E-18
   40.110001        1.44193452E-18
   40.252499        1.44087790E-18
   40.395000        1.43905469E-18
   40.537498        1.43682534E-18
   40.680000        1.43465730E-18
   40.822498        1.43302889E-18
   40.965000        1.43233168E-18
   41.107498        1.43279170E-18
   41.250000        1.43442848E-18
   41.392502        1.43705560E-18
   41.535000        1.44031749E-18
   41.677502        1.44375825E-18
   41.820000        1.44690102E-18
   41.962502        1.44933231E-18
   42.105000        1.45077253E-18
   42.247501        1.45112429E-18
   42.389999        1.45048664E-18
   42.532501        1.44912934E-18
   42.674999        1.44743538E-18
   42.817501        1.44581359E-18
   42.959999        1.44460807E-18
   43.102501        1.44402088E-18
   43.244999        1.44407113E-18
   43.387501        1.44459980E-18
   43.529999        1.44531418E-18
   43.672501        1.44586653E-18
   43.814999        1.44593735E-18
   43.957500        1.44531593E-18
   44.099998        1.44394716E-18
   44.242500        1.44195386E-18
   44.384998        1.43961697E-18
   44.527500        1.43732888E-18
   44.669998        1.43552470E-18
   44.812500        1.43459681E-18
   44.955002        1.43481756E-18
   45.097500        1.43627692E-18
   45.240002        1.43885276E-18
   45.382500        1.44222745E-18
   45.525002        1.44594397E-18
   45.667500        1.44949775E-18
   45.810001        1.45243651E-18
   45.952499        1.45445473E-18
   46.095001        1.45544652E-18
   46.237499        1.45551931E-18
   46.380001        1.45496148E-18
   46.522499        1.45417545E-18
   46.665001        1.45359467E-18
   46.807499        1.45360025E-18
   46.950001        1.45445080E-18
   47.092499        1.45623865E-18
   47.235001        1.45887084E-18
   47.377499        1.46208475E-18
   47.520000        1.46549635E-18
   47.662498        1.46867324E-18
   47.805000        1.47122054E-18
   47.947498        1.47286849E-18
   48.090000        1.47352951E-18
   48.232498        1.47332117E-18
   48.375000        1.47253607E-18
   48.517502        1.47157385E-18
   48.660000        1.47084480E-18
   48.802502        1.47067936E-18
   48.945000        1.47125539E-18
   49.087502        1.47256606E-18
   49.230000        1.47442473E-18
   49.372501        1.47650871E-18
   49.514999        1.47842136E-18
   49.657501        1.47976759E-18
   49.799999        1.48022575E-18
   49.942501        1.47960970E-18
   50.084999        1.47791254E-18
   50.227501        1.47532015E-18
   50.369999        1.47218917E-18
   50.512501        1.46899036E-18
   50.654999        1.46622086E-18
   50.797501        1.46430707E-18
   50.939999        1.46351649E-18
   51.082500        1.46390258E-18
   51.224998        1.46529659E-18
   51.367500        1.46734923E-18
   51.509998        1.46960661E-18
   51.652500        1.47160653E-18
   51.794998        1.47296600E-18
   51.937500        1.47345155E-18
   52.080002        1.47301387E-18
   52.222500        1.47179202E-18
   52.365002        1.47008544E-18
   52.507500        1.46829997E-18
   52.650002        1.46687516E-18
   52.792500        1.46619925E-18
   52.935001        1.46653487E-18
   53.077499        1.46795876E-18
   53.220001        1.47033918E-18
   53.362499        1.47335932E-18
   53.505001        1.47657933E-18
   53.647499        1.47952750E-18
   53.790001        1.48180039E-18
   53.932499        1.48314559E-18
   54.075001        1.48350666E-18
   54.217499        1.48302917E-18
   54.360001        1.48202549E-18
   54.502499        1.48090962E-18
   54.645000        1.48011728E-18
   54.787498        1.48002567E-18
   54.930000        1.48088232E-18
   55.072498        1.48275589E-18
   55.215000        1.48551619E-18
   55.357498        1.48885066E-18
   55.500000        1.49231840E-18
   55.642502        1.49543429E-18
   55.785000        1.49776529E-18
   55.927502        1.49902291E-18
   56.070000        1.49912641E-18
   56.212502        1.49821320E-18
   56.355000        1.49660858E-18
   56.497501        1.49475166E-18
   56.639999        1.49310257E-18
   56.782501        1.49205060E-18
   56.924999        1.49184350E-18
   57.067501        1.49254722E-18
   57.209999        1.49403863E-18
   57.352501        1.49603131E-18
   57.494999        1.49813142E-18
   57.637501        1.49990768E-18
   57.779999        1.50097847E-18
   57.922501        1.50109324E-18
   58.064999        1.50019492E-18
   58.207500        1.49844709E-18
   58.349998        1.49620884E-18
   58.492500        1.49396635E-18
   58.634998        1.49222710E-18
   58.777500        1.49141357E-18
   58.919998        1.49176978E-18
   59.062500        1.49331423E-18
   59.205002        1.49584240E-18
   59.347500        1.49897607E-18
   59.490002        1.50224250E-18
   59.632500        1.50516566E-18
   59.775002        1.50735055E-18
   59.917500        1.50855058E-18
   60.060001        1.50870806E-18
   60.202499        1.50796670E-18
   60.345001        1.50665065E-18
   60.487499        1.50520474E-18
   60.630001        1.50411090E-18
   60.772499        1.50378675E-18
   60.915001        1.50449099E-18
   61.057499        1.50625609E-18
   61.200001        1.50887794E-18
   61.342499        1.51195236E-18
   61.485001        1.51496464E-18
   61.627499        1.51740214E-18
   61.770000        1.51886005E-18
   61.912498        1.51912164E-18
   62.055000        1.51819272E-18
   62.197498        1.51629237E-18
   62.340000        1.51380566E-18
   62.482498        1.51121421E-18
   62.625000        1.50900988E-18
   62.767502        1.50761184E-18
   62.910000        1.50728975E-18
   63.052502        1.50811321E-18
   63.195000        1.50993177E-18
   63.337502        1.51240070E-18
   63.480000        1.51504478E-18
   63.622501        1.51735685E-18
   63.764999        1.51890719E-18
   63.907501        1.51943525E-18
   64.050003        1.51890037E-18
   64.192497        1.51748703E-18
   64.334999        1.51555525E-18
   64.477501        1.51356537E-18
   64.620003        1.51198431E-18
   64.762497        1.51120263E-18
   64.904999        1.51146836E-18
   65.047501        1.51285078E-18
   65.190002        1.51523410E-18
   65.332497        1.51833892E-18
   65.474998        1.52177038E-18
   65.617500        1.52509223E-18
   65.760002        1.52790640E-18
   65.902496        1.52993362E-18
   66.044998        1.53106706E-18
   66.187500        1.53138966E-18
   66.330002        1.53114492E-18
   66.472504        1.53066981E-18
   66.614998        1.53030998E-18
   66.757500        1.53033790E-18
   66.900002        1.53089325E-18
   67.042503        1.53196300E-18
   67.184998        1.53339154E-18
   67.327499        1.53491996E-18
   67.470001        1.53623983E-18
   67.612503        1.53705202E-18
   67.754997        1.53712388E-18
   67.897499        1.53633765E-18
   68.040001        1.53472589E-18
   68.182503        1.53248154E-18
   68.324997        1.52993744E-18
   68.467499        1.52751122E-18
   68.610001        1.52562266E-18
   68.752502        1.52460492E-18
   68.894997        1.52463046E-18
   69.037498        1.52567353E-18
   69.180000        1.52751711E-18
   69.322502        1.52980644E-18
   69.464996        1.53212709E-18
   69.607498        1.53408761E-18
   69.750000        1.53538918E-18
   69.892502        1.53587122E-18
   70.035004        1.53552918E-18
   70.177498        1.53450761E-18
   70.320000        1.53307669E-18
   70.462502        1.53158539E-18
   70.605003        1.53040500E-18
   70.747498        1.52985814E-18
   70.889999        1.53015137E-18
   71.032501        1.53132256E-18
   71.175003        1.53322486E-18
   71.317497        1.53555203E-18
   71.459999        1.53790660E-18
   71.602501        1.53988904E-18
   71.745003        1.54118917E-18
   71.887497        1.54165115E-18
   72.029999        1.54129660E-18
   72.172501        1.54030956E-18
   72.315002        1.53899000E-18
   72.457497        1.53768730E-18
   72.599998        1.53673676E-18
   72.742500        1.53640548E-18
   72.885002        1.53684854E-18
   73.027496        1.53808445E-18
   73.169998        1.53998893E-18
   73.312500        1.54231434E-18
   73.455002        1.54473570E-18
   73.597504        1.54691729E-18
   73.739998        1.54859005E-18
   73.882500        1.54961483E-18
   74.025002        1.55001777E-18
   74.167503        1.54998230E-18
   74.309998        1.54979732E-18
   74.452499        1.54978161E-18
   74.595001        1.55020088E-18
   74.737503        1.55120539E-18
   74.879997        1.55279420E-18
   75.022499        1.55481759E-18
   75.165001        1.55700724E-18
   75.307503        1.55902597E-18
   75.449997        1.56052875E-18
   75.592499        1.56122555E-18
   75.735001        1.56094151E-18
   75.877502        1.55966166E-18
   76.019997        1.55755225E-18
   76.162498        1.55494456E-18
   76.305000        1.55228383E-18
   76.447502        1.55004114E-18
   76.589996        1.54861373E-18
   76.732498        1.54823985E-18
   76.875000        1.54894429E-18
   77.017502        1.55053879E-18
   77.160004        1.55266433E-18
   77.302498        1.55487394E-18
   77.445000        1.55672176E-18
   77.587502        1.55785024E-18
   77.730003        1.55804979E-18
   77.872498        1.55729479E-18
   78.014999        1.55574899E-18
   78.157501        1.55374163E-18
   78.300003        1.55171793E-18
   78.442497        1.55015994E-18
   78.584999        1.54950099E-18
   78.727501        1.55003090E-18
   78.870003        1.55183095E-18
   79.012497        1.55474521E-18
   79.154999        1.55841396E-18
   79.297501        1.56234803E-18
   79.440002        1.56603850E-18
   79.582497        1.56906619E-18
   79.724998        1.57118253E-18
   79.867500        1.57234575E-18
   80.010002        1.57270981E-18
   80.152496        1.57257209E-18
   80.294998        1.57230522E-18
   80.437500        1.57227430E-18
   80.580002        1.57276958E-18
   80.722504        1.57394438E-18
   80.864998        1.57577917E-18
   81.007500        1.57807170E-18
   81.150002        1.58045957E-18
   81.292503        1.58248512E-18
   81.434998        1.58368392E-18
   81.577499        1.58369477E-18
   81.720001        1.58234926E-18
   81.862503        1.57972234E-18
   82.004997        1.57612896E-18
   82.147499        1.57206337E-18
   82.290001        1.56809714E-18
   82.432503        1.56476702E-18
   82.574997        1.56247738E-18
   82.717499        1.56143544E-18
   82.860001        1.56162994E-18
   83.002502        1.56284796E-18
   83.144997        1.56472338E-18
   83.287498        1.56680540E-18
   83.430000        1.56863678E-18
   83.572502        1.56983960E-18
   83.714996        1.57018650E-18
   83.857498        1.56964997E-18
   84.000000        1.56841189E-18
   84.142502        1.56682484E-18
   84.285004        1.56533353E-18
   84.427498        1.56437101E-18
   84.570000        1.56425468E-18
   84.712502        1.56511423E-18
   84.855003        1.56686402E-18
   84.997498        1.56922790E-18
   85.139999        1.57180053E-18
   85.282501        1.57413205E-18
   85.425003        1.57581433E-18
   85.567497        1.57654938E-18
   85.709999        1.57620217E-18
   85.852501        1.57482223E-18
   85.995003        1.57264105E-18
   86.137497        1.57003688E-18
   86.279999        1.56746983E-18
   86.422501        1.56539940E-18
   86.565002        1.56419254E-18
   86.707497        1.56404551E-18
   86.849998        1.56494610E-18
   86.992500        1.56668360E-18
   87.135002        1.56890292E-18
   87.277496        1.57119245E-18
   87.419998        1.57317882E-18
   87.562500        1.57460085E-18
   87.705002        1.57535534E-18
   87.847504        1.57549989E-18
   87.989998        1.57523168E-18
   88.132500        1.57484022E-18
   88.275002        1.57465255E-18
   88.417503        1.57497350E-18
   88.559998        1.57602588E-18
   88.702499        1.57790068E-18
   88.845001        1.58052429E-18
   88.987503        1.58365765E-18
   89.129997        1.58693442E-18
   89.272499        1.58993668E-18
   89.415001        1.59228845E-18
   89.557503        1.59374791E-18
   89.699997        1.59426955E-18
   89.842499        1.59401519E-18
   89.985001        1.59331540E-18
   90.127502        1.59259513E-18
   90.269997        1.59228049E-18
   90.412498        1.59271466E-18
   90.555000        1.59409646E-18
   90.697502        1.59644876E-18
   90.839996        1.59961428E-18
   90.982498        1.60327527E-18
   91.125000        1.60700007E-18
   91.267502        1.61030621E-18
   91.410004        1.61274132E-18
   91.552498        1.61396979E-18
   91.695000        1.61384840E-18
   91.837502        1.61246566E-18
   91.980003        1.61013384E-18