  -30.000000        9.84044911E-18
  -29.857500        9.85751136E-18
  -29.715000        9.88334669E-18
  -29.572500        9.90642503E-18
  -29.430000        9.91863835E-18
  -29.287500        9.91982867E-18
  -29.145000        9.91749519E-18
  -29.002501        9.92190241E-18
  -28.860001        9.93955858E-18
  -28.717501        9.96902606E-18
  -28.575001        1.00015789E-17
  -28.432501        1.00263141E-17
  -28.290001        1.00366365E-17
  -28.147499        1.00342054E-17
  -28.004999        1.00279643E-17
  -27.862499        1.00288411E-17
  -27.719999        1.00432829E-17
  -27.577499        1.00695062E-17
  -27.434999        1.00986866E-17
  -27.292500        1.01203372E-17
  -27.150000        1.01286306E-17
  -27.007500        1.01258504E-17
  -26.865000        1.01209279E-17
  -26.722500        1.01239669E-17
  -26.580000        1.01401093E-17
  -26.437500        1.01664195E-17
  -26.295000        1.01936916E-17
  -26.152500        1.02120459E-17
  -26.010000        1.02169222E-17
  -25.867500        1.02118424E-17
  -25.725000        1.02062772E-17
  -25.582500        1.02099110E-17
  -25.440001        1.02267937E-17
  -25.297501        1.02528938E-17
  -25.155001        1.02785579E-17
  -25.012501        1.02943463E-17
  -24.870001        1.02967343E-17
  -24.727501        1.02902186E-17
  -24.584999        1.02845632E-17
  -24.442499        1.02888761E-17
  -24.299999        1.03060947E-17
  -24.157499        1.03312476E-17
  -24.014999        1.03545195E-17
  -23.872499        1.03672722E-17
  -23.730000        1.03673433E-17
  -23.587500        1.03604057E-17
  -23.445000        1.03565428E-17
  -23.302500        1.03641008E-17
  -23.160000        1.03845569E-17
  -23.017500        1.04115164E-17
  -22.875000        1.04344822E-17
  -22.732500        1.04451223E-17
  -22.590000        1.04422817E-17
  -22.447500        1.04326715E-17
  -22.305000        1.04268366E-17
  -22.162500        1.04328089E-17
  -22.020000        1.04512781E-17
  -21.877501        1.04752118E-17
  -21.735001        1.04941435E-17
  -21.592501        1.05005591E-17
  -21.450001        1.04945016E-17
  -21.307501        1.04835911E-17
  -21.165001        1.04784419E-17
  -21.022499        1.04862009E-17
  -20.879999        1.05061343E-17
  -20.737499        1.05299306E-17
  -20.594999        1.05465851E-17
  -20.452499        1.05489508E-17
  -20.309999        1.05380345E-17
  -20.167500        1.05224488E-17
  -20.025000        1.05133448E-17
  -19.882500        1.05178505E-17
  -19.740000        1.05349458E-17
  -19.597500        1.05562449E-17
  -19.455000        1.05711813E-17
  -19.312500        1.05734908E-17
  -19.170000        1.05650395E-17
  -19.027500        1.05547220E-17
  -18.885000        1.05530561E-17
  -18.742500        1.05657343E-17
  -18.600000        1.05900203E-17
  -18.457500        1.06161700E-17
  -18.315001        1.06330379E-17
  -18.172501        1.06345466E-17
  -18.030001        1.06231423E-17
  -17.887501        1.06082026E-17
  -17.745001        1.06003791E-17
  -17.602501        1.06052744E-17
  -17.459999        1.06202505E-17
  -17.317499        1.06362506E-17
  -17.174999        1.06435066E-17
  -17.032499        1.06376469E-17
  -16.889999        1.06225252E-17
  -16.747499        1.06080479E-17
  -16.605000        1.06043132E-17
  -16.462500        1.06156025E-17
  -16.320000        1.06378264E-17
  -16.177500        1.06609684E-17
  -16.035000        1.06750322E-17
  -15.892500        1.06759247E-17
  -15.750000        1.06677389E-17
  -15.607500        1.06601032E-17
  -15.465000        1.06622216E-17
  -15.322500        1.06772358E-17
  -15.180000        1.07003034E-17
  -15.037500        1.07215329E-17
  -14.895000        1.07319893E-17
  -14.752500        1.07290992E-17
  -14.610000        1.07181953E-17
  -14.467500        1.07092634E-17
  -14.325000        1.07108698E-17
  -14.182500        1.07249691E-17
  -14.040000        1.07457180E-17
  -13.897500        1.07630417E-17
  -13.755000        1.07687608E-17
  -13.612500        1.07615933E-17
  -13.470000        1.07479688E-17
  -13.327500        1.07381899E-17
  -13.185000        1.07402396E-17
  -13.042500        1.07549982E-17
  -12.900000        1.07757596E-17
  -12.757500        1.07923371E-17
  -12.615000        1.07972679E-17
  -12.472500        1.07903527E-17
  -12.330000        1.07787565E-17
  -12.187500        1.07726262E-17
  -12.045000        1.07788557E-17
  -11.902500        1.07968064E-17
  -11.760000        1.08185885E-17
  -11.617500        1.08337714E-17
  -11.475000        1.08356863E-17
  -11.332500        1.08255104E-17
  -11.190000        1.08116617E-17
  -11.047500        1.08048193E-17
  -10.905000        1.08115699E-17
  -10.762500        1.08304950E-17
  -10.620000        1.08530547E-17
  -10.477500        1.08687587E-17
  -10.335000        1.08714933E-17
  -10.192500        1.08631926E-17
  -10.050000        1.08526353E-17
  -9.9075003        1.08500801E-17
  -9.7650003        1.08609741E-17
  -9.6225004        1.08825420E-17
  -9.4799995        1.09053391E-17
  -9.3374996        1.09188585E-17
  -9.1949997        1.09178370E-17
  -9.0524998        1.09054723E-17
  -8.9099998        1.08915988E-17
  -8.7674999        1.08868921E-17
  -8.6250000        1.08965718E-17
  -8.4825001        1.09173638E-17
  -8.3400002        1.09395223E-17
  -8.1975002        1.09526944E-17
  -8.0550003        1.09521095E-17
  -7.9124999        1.09413595E-17
  -7.7700000        1.09301322E-17
  -7.6275001        1.09282710E-17
  -7.4850001        1.09397523E-17
  -7.3425002        1.09602143E-17
  -7.1999998        1.09795297E-17
  -7.0574999        1.09878884E-17
  -6.9150000        1.09817209E-17
  -6.7725000        1.09659218E-17
  -6.6300001        1.09510235E-17
  -6.4875002        1.09470290E-17
  -6.3449998        1.09575871E-17
  -6.2024999        1.09779846E-17
  -6.0599999        1.09981363E-17
  -5.9175000        1.10087243E-17
  -5.7750001        1.10067878E-17
  -5.6325002        1.09973985E-17
  -5.4899998        1.09904535E-17
  -5.3474998        1.09945406E-17
  -5.2049999        1.10116177E-17
  -5.0625000        1.10357193E-17
  -4.9200001        1.10564733E-17
  -4.7775002        1.10652877E-17
  -4.6350002        1.10604901E-17
  -4.4924998        1.10482974E-17
  -4.3499999        1.10390652E-17
  -4.2075000        1.10410670E-17
  -4.0650001        1.10555840E-17
  -3.9224999        1.10762330E-17
  -3.7800000        1.10929255E-17
  -3.6375000        1.10980325E-17
  -3.4949999        1.10910205E-17
  -3.3525000        1.10787418E-17
  -3.2100000        1.10712368E-17
  -3.0675001        1.10755911E-17
  -2.9250000        1.10916036E-17
  -2.7825000        1.11118877E-17
  -2.6400001        1.11263560E-17
  -2.4974999        1.11283602E-17
  -2.3550000        1.11187732E-17
  -2.2125001        1.11055110E-17
  -2.0699999        1.10987794E-17
  -1.9275000        1.11049237E-17
  -1.7850000        1.11225873E-17
  -1.6425000        1.11435324E-17
  -1.5000000        1.11576110E-17
  -1.3575000        1.11588981E-17
  -1.2150000        1.11492647E-17
  -1.0725000        1.11372251E-17
 -0.93000001        1.11327509E-17
 -0.78750002        1.11411782E-17
 -0.64499998        1.11599287E-17
 -0.50250000        1.11800276E-17
 -0.36000001        1.11915254E-17
 -0.21750000        1.11895650E-17
 -7.50000030E-02    1.11773947E-17
  6.75000027E-02    1.11645097E-17
  0.20999999        1.11609859E-17
  0.35249999        1.11714323E-17
  0.49500000        1.11921805E-17
  0.63749999        1.12134448E-17
  0.77999997        1.12251536E-17
  0.92250001        1.12229591E-17
   1.0650001        1.12108185E-17
   1.2075000        1.11985821E-17
   1.3500000        1.11960385E-17
   1.4924999        1.12070069E-17
   1.6350000        1.12270305E-17
   1.7775000        1.12460738E-17
   1.9200000        1.12546029E-17
   2.0625000        1.12493966E-17
   2.2049999        1.12355744E-17
   2.3475001        1.12236150E-17
   2.4900000        1.12231320E-17
   2.6324999        1.12371345E-17
   2.7750001        1.12602103E-17
   2.9175000        1.12817270E-17
   3.0599999        1.12921213E-17
   3.2025001        1.12885189E-17
   3.3450000        1.12763238E-17
   3.4875000        1.12658459E-17
   3.6300001        1.12660229E-17
   3.7725000        1.12790105E-17
   3.9150000        1.12989067E-17
   4.0574999        1.13153477E-17
   4.1999998        1.13198145E-17
   4.3425002        1.13108313E-17
   4.4850001        1.12949296E-17
   4.6275001        1.12827998E-17
   4.7700000        1.12829561E-17
   4.9124999        1.12967105E-17
   5.0549998        1.13174636E-17
   5.1975002        1.13347236E-17
   5.3400002        1.13404063E-17
   5.4825001        1.13336251E-17
   5.6250000        1.13211123E-17
   5.7674999        1.13130407E-17
   5.9099998        1.13168044E-17
   6.0524998        1.13325365E-17
   6.1950002        1.13530489E-17
   6.3375001        1.13682244E-17
   6.4800000        1.13711791E-17
   6.6224999        1.13624614E-17
   6.7649999        1.13497402E-17
   6.9074998        1.13431823E-17
   7.0500002        1.13493266E-17
   7.1925001        1.13671482E-17
   7.3350000        1.13886996E-17
   7.4775000        1.14039288E-17
   7.6199999        1.14067388E-17
   7.7624998        1.13986365E-17
   7.9050002        1.13877566E-17
   8.0474997        1.13838722E-17
   8.1899996        1.13924252E-17
   8.3325005        1.14112022E-17
   8.4750004        1.14316725E-17
   8.6175003        1.14441761E-17
   8.7600002        1.14438006E-17
   8.9025002        1.14333814E-17
   9.0450001        1.14217852E-17
   9.1875000        1.14185037E-17
   9.3299999        1.14278426E-17
   9.4724998        1.14462226E-17
   9.6149998        1.14642601E-17
   9.7574997        1.14723846E-17
   9.8999996        1.14666184E-17
   10.042500        1.14510153E-17
   10.185000        1.14352798E-17
   10.327500        1.14289924E-17
   10.470000        1.14359192E-17
   10.612500        1.14518416E-17
   10.755000        1.14672214E-17
   10.897500        1.14730960E-17
   11.040000        1.14666299E-17
   11.182500        1.14529550E-17
   11.325000        1.14421578E-17
   11.467500        1.14432133E-17
   11.610000        1.14585070E-17
   11.752500        1.14822703E-17
   11.895000        1.15038953E-17
   12.037500        1.15141597E-17
   12.180000        1.15106500E-17
   12.322500        1.14991191E-17
   12.465000        1.14899688E-17
   12.607500        1.14919731E-17
   12.750000        1.15069955E-17
   12.892500        1.15288893E-17
   13.035000        1.15472188E-17
   13.177500        1.15535757E-17
   13.320000        1.15466696E-17
   13.462500        1.15331278E-17
   13.605000        1.15235300E-17
   13.747500        1.15260372E-17
   13.890000        1.15414641E-17
   14.032500        1.15627409E-17
   14.175000        1.15791009E-17
   14.317500        1.15824824E-17
   14.460000        1.15723130E-17
   14.602500        1.15558199E-17
   14.745000        1.15436942E-17
   14.887500        1.15437364E-17
   15.030000        1.15562789E-17
   15.172500        1.15741361E-17
   15.315000        1.15870674E-17
   15.457500        1.15880361E-17
   15.600000        1.15774970E-17
   15.742500        1.15631297E-17
   15.885000        1.15551920E-17
   16.027500        1.15603156E-17
   16.170000        1.15774903E-17
   16.312500        1.15986430E-17
   16.455000        1.16134578E-17
   16.597500        1.16155225E-17
   16.740000        1.16060976E-17
   16.882500        1.15932572E-17
   17.025000        1.15869516E-17
   17.167500        1.15929793E-17
   17.309999        1.16095196E-17
   17.452499        1.16282991E-17
   17.594999        1.16396563E-17
   17.737499        1.16384263E-17
   17.879999        1.16270732E-17
   18.022499        1.16141816E-17
   18.165001        1.16092367E-17
   18.307501        1.16168724E-17
   18.450001        1.16340678E-17
   18.592501        1.16520011E-17
   18.735001        1.16614260E-17
   18.877501        1.16583092E-17
   19.020000        1.16463002E-17
   19.162500        1.16345509E-17
   19.305000        1.16321744E-17
   19.447500        1.16427317E-17
   19.590000        1.16620621E-17
   19.732500        1.16807895E-17
   19.875000        1.16899853E-17
   20.017500        1.16865500E-17
   20.160000        1.16750654E-17
   20.302500        1.16649721E-17
   20.445000        1.16647951E-17
   20.587500        1.16769100E-17
   20.730000        1.16960460E-17
   20.872499        1.17124382E-17
   21.014999        1.17177463E-17
   21.157499        1.17101685E-17
   21.299999        1.16956299E-17
   21.442499        1.16843149E-17
   21.584999        1.16846003E-17
   21.727501        1.16980511E-17
   21.870001        1.17184841E-17
   22.012501        1.17356795E-17
   22.155001        1.17415211E-17
   22.297501        1.17348548E-17
   22.440001        1.17221411E-17
   22.582500        1.17135020E-17
   22.725000        1.17165353E-17
   22.867500        1.17316321E-17
   23.010000        1.17516367E-17
   23.152500        1.17660660E-17
   23.295000        1.17673870E-17
   23.437500        1.17555600E-17
   23.580000        1.17381371E-17
   23.722500        1.17258220E-17
   23.865000        1.17261562E-17
   24.007500        1.17391065E-17
   24.150000        1.17571904E-17
   24.292500        1.17700505E-17
   24.434999        1.17707255E-17
   24.577499        1.17598539E-17
   24.719999        1.17452707E-17
   24.862499        1.17372818E-17
   25.004999        1.17424326E-17
   25.147499        1.17595404E-17
   25.290001        1.17803721E-17
   25.432501        1.17945516E-17
   25.575001        1.17957502E-17
   25.717501        1.17854502E-17
   25.860001        1.17720225E-17
   26.002501        1.17656996E-17
   26.145000        1.17724552E-17
   26.287500        1.17904794E-17
   26.430000        1.18113235E-17
   26.572500        1.18250159E-17
   26.715000        1.18260424E-17
   26.857500        1.18165886E-17
   27.000000        1.18051205E-17
   27.142500        1.18011848E-17
   27.285000        1.18095848E-17
   27.427500        1.18274552E-17
   27.570000        1.18459874E-17
   27.712500        1.18557498E-17
   27.855000        1.18523823E-17
   27.997499        1.18392186E-17
   28.139999        1.18252764E-17
   28.282499        1.18198394E-17
   28.424999        1.18269085E-17
   28.567499        1.18428764E-17
   28.709999        1.18588087E-17
   28.852501        1.18659266E-17
   28.995001        1.18609651E-17
   29.137501        1.18481554E-17
   29.280001        1.18366444E-17
   29.422501        1.18349296E-17
   29.565001        1.18456896E-17
   29.707500        1.18641514E-17
   29.850000        1.18809829E-17
   29.992500        1.18879511E-17
   30.135000        1.18829193E-17
   30.277500        1.18711345E-17
   30.420000        1.18620322E-17
   30.562500        1.18634814E-17
   30.705000        1.18769570E-17
   30.847500        1.18965819E-17
   30.990000        1.19126151E-17
   31.132500        1.19173085E-17
   31.275000        1.19095645E-17
   31.417500        1.18955959E-17
   31.559999        1.18851676E-17
   31.702499        1.18856912E-17
   31.844999        1.18977457E-17
   31.987499        1.19147344E-17
   32.130001        1.19269030E-17
   32.272499        1.19272951E-17
   32.415001        1.19160314E-17
   32.557499        1.19003149E-17
   32.700001        1.18901357E-17
   32.842499        1.18922375E-17
   32.985001        1.19059894E-17
   33.127499        1.19236712E-17
   33.270000        1.19350185E-17
   33.412498        1.19333153E-17
   33.555000        1.19193963E-17
   33.697498        1.19011289E-17
   33.840000        1.18887104E-17
   33.982498        1.18885888E-17
   34.125000        1.18996648E-17
   34.267502        1.19140602E-17
   34.410000        1.19219821E-17
   34.552502        1.19177594E-17
   34.695000        1.19034020E-17
   34.837502        1.18875375E-17
   34.980000        1.18803385E-17
   35.122501        1.18874895E-17
   35.264999        1.19067934E-17
   35.407501        1.19294706E-17
   35.549999        1.19453591E-17
   35.692501        1.19489143E-17
   35.834999        1.19424143E-17
   35.977501        1.19344692E-17
   36.119999        1.19347447E-17
   36.262501        1.19480888E-17
   36.404999        1.19715799E-17
   36.547501        1.19962555E-17
   36.689999        1.20124624E-17
   36.832500        1.20156066E-17
   36.974998        1.20088295E-17
   37.117500        1.20010308E-17
   37.259998        1.20014328E-17
   37.402500        1.20139729E-17
   37.544998        1.20348964E-17
   37.687500        1.20549853E-17
   37.830002        1.20650686E-17
   37.972500        1.20614894E-17
   38.115002        1.20482446E-17
   38.257500        1.20345341E-17
   38.400002        1.20292178E-17
   38.542500        1.20355342E-17
   38.685001        1.20492530E-17
   38.827499        1.20613587E-17
   38.970001        1.20636087E-17
   39.112499        1.20535940E-17
   39.255001        1.20362389E-17
   39.397499        1.20208476E-17
   39.540001        1.20154957E-17
   39.682499        1.20221777E-17
   39.825001        1.20356376E-17
   39.967499        1.20465969E-17
   40.110001        1.20474042E-17
   40.252499        1.20366897E-17
   40.395000        1.20202007E-17
   40.537498        1.20073174E-17
   40.680000        1.20053603E-17
   40.822498        1.20151442E-17
   40.965000        1.20304735E-17
   41.107498        1.20418778E-17
   41.250000        1.20423410E-17
   41.392502        1.20315405E-17
   41.535000        1.20160317E-17
   41.677502        1.20052718E-17
   41.820000        1.20058773E-17
   41.962502        1.20176149E-17
   42.105000        1.20335564E-17
   42.247501        1.20443147E-17
   42.389999        1.20438051E-17
   42.532501        1.20330319E-17
   42.674999        1.20195919E-17
   42.817501        1.20131622E-17
   42.959999        1.20196821E-17
   43.102501        1.20377336E-17
   43.244999        1.20593206E-17
   43.387501        1.20745878E-17
   43.529999        1.20776616E-17
   43.672501        1.20700962E-17
   43.814999        1.20598376E-17
   43.957500        1.20563526E-17
   44.099998        1.20648279E-17
   44.242500        1.20829672E-17
   44.384998        1.21023149E-17
   44.527500        1.21133346E-17
   44.669998        1.21111840E-17
   44.812500        1.20987093E-17
   44.955002        1.20848424E-17
   45.097500        1.20793325E-17
   45.240002        1.20869707E-17
   45.382500        1.21047584E-17
   45.525002        1.21237207E-17
   45.667500        1.21342788E-17
   45.810001        1.21319603E-17
   45.952499        1.21200257E-17
   46.095001        1.21074492E-17
   46.237499        1.21034680E-17
   46.380001        1.21119896E-17
   46.522499        1.21292124E-17
   46.665001        1.21458974E-17
   46.807499        1.21529045E-17
   46.950001        1.21466857E-17
   47.092499        1.21314350E-17
   47.235001        1.21165937E-17
   47.377499        1.21112410E-17
   47.520000        1.21187188E-17
   47.662498        1.21347148E-17
   47.805000        1.21499299E-17
   47.947498        1.21557210E-17
   48.090000        1.21492947E-17
   48.232498        1.21353542E-17
   48.375000        1.21232343E-17
   48.517502        1.21212483E-17
   48.660000        1.21316947E-17
   48.802502        1.21494965E-17
   48.945000        1.21652989E-17
   49.087502        1.21711231E-17
   49.230000        1.21651625E-17
   49.372501        1.21528317E-17
   49.514999        1.21434515E-17
   49.657501        1.21445863E-17
   49.799999        1.21574614E-17
   49.942501        1.21762144E-17
   50.084999        1.21914329E-17
   50.227501        1.21958211E-17
   50.369999        1.21885626E-17
   50.512501        1.21757595E-17
   50.654999        1.21666944E-17
   50.797501        1.21681899E-17
   50.939999        1.21804852E-17
   51.082500        1.21971289E-17
   51.224998        1.22089410E-17
   51.367500        1.22096160E-17
   51.509998        1.21995905E-17
   51.652500        1.21857874E-17
   51.794998        1.21774205E-17
   51.937500        1.21803727E-17
   52.080002        1.21935819E-17
   52.222500        1.22096218E-17
   52.365002        1.22191476E-17
   52.507500        1.22165329E-17
   52.650002        1.22032748E-17
   52.792500        1.21871216E-17
   52.935001        1.21774262E-17
   53.077499        1.21795430E-17
   53.220001        1.21916438E-17
   53.362499        1.22058970E-17
   53.505001        1.22132853E-17
   53.647499        1.22091619E-17
   53.790001        1.21961544E-17
   53.932499        1.21826565E-17
   54.075001        1.21777770E-17
   54.217499        1.21857965E-17
   54.360001        1.22034766E-17
   54.502499        1.22218723E-17
   54.645000        1.22315884E-17
   54.787498        1.22283351E-17
   54.930000        1.22154526E-17
   55.072498        1.22018769E-17
   55.215000        1.21967715E-17
   55.357498        1.22040457E-17
   55.500000        1.22200500E-17
   55.642502        1.22358434E-17
   55.785000        1.22426618E-17
   55.927502        1.22372926E-17
   56.070000        1.22241040E-17
   56.212502        1.22125028E-17
   56.355000        1.22113100E-17
   56.497501        1.22234539E-17
   56.639999        1.22441400E-17
   56.782501        1.22636334E-17
   56.924999        1.22729788E-17
   57.067501        1.22692557E-17
   57.209999        1.22572177E-17
   57.352501        1.22463651E-17
   57.494999        1.22452005E-17
   57.637501        1.22561341E-17
   57.779999        1.22740749E-17
   57.922501        1.22895398E-17
   58.064999        1.22944003E-17
   58.207500        1.22867820E-17
   58.349998        1.22721914E-17
   58.492500        1.22601906E-17
   58.634998        1.22586380E-17
   58.777500        1.22689637E-17
   58.919998        1.22853262E-17
   59.062500        1.22981466E-17
   59.205002        1.22998887E-17
   59.347500        1.22896110E-17
   59.490002        1.22735537E-17
   59.632500        1.22614297E-17
   59.775002        1.22606572E-17
   59.917500        1.22719995E-17
   60.060001        1.22892288E-17
   60.202499        1.23029625E-17
   60.345001        1.23063498E-17
   60.487499        1.22991517E-17
   60.630001        1.22877614E-17
   60.772499        1.22811936E-17
   60.915001        1.22854726E-17
   61.057499        1.22998655E-17
   61.200001        1.23172363E-17
   61.342499        1.23283139E-17
   61.485001        1.23273089E-17
   61.627499        1.23154537E-17
   61.770000        1.23003411E-17
   61.912498        1.22914432E-17
   62.055000        1.22945112E-17
   62.197498        1.23082316E-17
   62.340000        1.23251408E-17
   62.482498        1.23362284E-17
   62.625000        1.23364137E-17
   62.767502        1.23275852E-17
   62.910000        1.23173513E-17
   63.052502        1.23142709E-17
   63.195000        1.23224748E-17
   63.337502        1.23389680E-17
   63.480000        1.23552767E-17
   63.622501        1.23624765E-17
   63.764999        1.23565762E-17
   63.907501        1.23409971E-17
   64.050003        1.23246181E-17
   64.192497        1.23165464E-17
   64.334999        1.23207485E-17
   64.477501        1.23337609E-17
   64.620003        1.23468701E-17
   64.762497        1.23514460E-17
   64.904999        1.23441958E-17
   65.047501        1.23291816E-17
   65.190002        1.23153561E-17
   65.332497        1.23111110E-17
   65.474998        1.23191363E-17
   65.617500        1.23346981E-17
   65.760002        1.23484293E-17
   65.902496        1.23519506E-17
   66.044998        1.23429682E-17
   66.187500        1.23267530E-17
   66.330002        1.23131054E-17
   66.472504        1.23105792E-17
   66.614998        1.23214367E-17
   66.757500        1.23403362E-17
   66.900002        1.23575572E-17
   67.042503        1.23648099E-17
   67.184998        1.23601529E-17
   67.327499        1.23490770E-17
   67.470001        1.23411046E-17
   67.612503        1.23439667E-17
   67.754997        1.23588642E-17
   67.897499        1.23796686E-17
   68.040001        1.23965522E-17
   68.182503        1.24018602E-17
   68.324997        1.23946985E-17
   68.467499        1.23814710E-17
   68.610001        1.23720494E-17
   68.752502        1.23738610E-17
   68.894997        1.23874457E-17
   69.037498        1.24061318E-17
   69.180000        1.24200201E-17
   69.322502        1.24218755E-17
   69.464996        1.24113959E-17
   69.607498        1.23953114E-17
   69.750000        1.23832908E-17
   69.892502        1.23821460E-17
   70.035004        1.23918248E-17
   70.177498        1.24056040E-17
   70.320000        1.24143291E-17
   70.462502        1.24121172E-17
   70.605003        1.24000644E-17
   70.747498        1.23856963E-17
   70.889999        1.23785089E-17
   71.032501        1.23842652E-17
   71.175003        1.24015045E-17
   71.317497        1.24223478E-17
   71.459999        1.24371246E-17
   71.602501        1.24400156E-17
   71.745003        1.24323344E-17
   71.887497        1.24214958E-17
   72.029999        1.24163383E-17
   72.172501        1.24216571E-17
   72.315002        1.24352866E-17
   72.457497        1.24494735E-17
   72.599998        1.24557163E-17
   72.742500        1.24500914E-17
   72.885002        1.24358176E-17
   73.027496        1.24214784E-17
   73.169998        1.24159347E-17
   73.312500        1.24230178E-17
   73.455002        1.24391925E-17
   73.597504        1.24556187E-17
   73.739998        1.24633826E-17
   73.882500        1.24587462E-17
   74.025002        1.24452483E-17
   74.167503        1.24314195E-17
   74.309998        1.24254927E-17
   74.452499        1.24303450E-17
   74.595001        1.24417361E-17
   74.737503        1.24509385E-17
   74.879997        1.24501510E-17
   75.022499        1.24374223E-17
   75.165001        1.24180556E-17
   75.307503        1.24016137E-17
   75.449997        1.23962949E-17
   75.592499        1.24040448E-17
   75.735001        1.24193757E-17
   75.877502        1.24326123E-17
   76.019997        1.24356447E-17
   76.162498        1.24267360E-17
   76.305000        1.24115035E-17
   76.447502        1.23994854E-17
   76.589996        1.23983571E-17
   76.732498        1.24092924E-17
   76.875000        1.24262686E-17
   77.017502        1.24397327E-17
   77.160004        1.24424243E-17
   77.302498        1.24338340E-17
   77.445000        1.24205884E-17
   77.587502        1.24125085E-17
   77.730003        1.24166849E-17
   77.872498        1.24331384E-17
   78.014999        1.24546691E-17
   78.157501        1.24710158E-17
   78.300003        1.24748481E-17
   78.442497        1.24660089E-17
   78.584999        1.24514943E-17
   78.727501        1.24411943E-17
   78.870003        1.24419586E-17
   79.012497        1.24535623E-17
   79.154999        1.24689652E-17
   79.297501        1.24786904E-17
   79.440002        1.24766638E-17
   79.582497        1.24639781E-17
   79.724998        1.24483039E-17
   79.867500        1.24393108E-17
   80.010002        1.24428503E-17
   80.152496        1.24574004E-17
   80.294998        1.24749184E-17
   80.437500        1.24855965E-17
   80.580002        1.24836510E-17
   80.722504        1.24707081E-17
   80.864998        1.24547427E-17
   81.007500        1.24452715E-17
   81.150002        1.24476719E-17
   81.292503        1.24600747E-17
   81.434998        1.24746446E-17
   81.577499        1.24824491E-17
   81.720001        1.24789336E-17
   81.862503        1.24666830E-17
   82.004997        1.24537964E-17
   82.147499        1.24488862E-17
   82.290001        1.24557336E-17
   82.432503        1.24708661E-17
   82.574997        1.24855312E-17
   82.717499        1.24908905E-17
   82.860001        1.24833036E-17
   83.002502        1.24665143E-17
   83.144997        1.24494405E-17
   83.287498        1.24408849E-17
   83.430000        1.24443880E-17
   83.572502        1.24562961E-17
   83.714996        1.24681918E-17
   83.857498        1.24721821E-17
   84.000000        1.24658046E-17
   84.142502        1.24535565E-17
   84.285004        1.24441175E-17
   84.427498        1.24449555E-17
   84.570000        1.24575915E-17
   84.712502        1.24764553E-17
   84.855003        1.24920436E-17
   84.997498        1.24965153E-17
   85.139999        1.24883610E-17
   85.282501        1.24733145E-17
   85.425003        1.24609507E-17
   85.567497        1.24589944E-17
   85.709999        1.24687799E-17
   85.852501        1.24845601E-17
   85.995003        1.24971043E-17
   86.137497        1.24993691E-17
   86.279999        1.24908169E-17
   86.422501        1.24777515E-17
   86.565002        1.24694557E-17
   86.707497        1.24724568E-17
   86.849998        1.24864138E-17
   86.992500        1.25041369E-17
   87.135002        1.25157729E-17
   87.277496        1.25146686E-17
   87.419998        1.25013981E-17
   87.562500        1.24835104E-17
   87.705002        1.24711432E-17
   87.847504        1.24710869E-17
   87.989998        1.24828693E-17
   88.132500        1.24991672E-17
   88.275002        1.25103019E-17
   88.417503        1.25100910E-17
   88.559998        1.24995295E-17
   88.702499        1.24861069E-17
   88.845001        1.24791577E-17
   88.987503        1.24840778E-17
   89.129997        1.24989042E-17
   89.272499        1.25153353E-17
   89.415001        1.25236129E-17
   89.557503        1.25183388E-17
   89.699997        1.25017447E-17
   89.842499        1.24824524E-17
   89.985001        1.24704599E-17
   90.127502        1.24713475E-17
   90.269997        1.24831522E-17
   90.412498        1.24977552E-17
   90.555000        1.25059121E-17
   90.697502        1.25028664E-17
   90.839996        1.24911858E-17
   90.982498        1.24791189E-17
   91.125000        1.24755016E-17
   91.267502        1.24843111E-17
   91.410004        1.25021592E-17
   91.552498        1.25202512E-17
   91.695000        1.25296215E-17
   91.837502        1.25264832E-17
   91.980003        1.25144759E-17