  -30.00000        9.8404830E-18
  -29.85750        9.8575444E-18
  -29.71500        9.8833773E-18
  -29.57250        9.9064540E-18
  -29.43000        9.9186673E-18
  -29.28750        9.9198593E-18
  -29.14500        9.9175299E-18
  -29.00250        9.9219380E-18
  -28.86000        9.9395933E-18
  -28.71750        9.9690583E-18
  -28.57500        1.0001610E-17
  -28.43250        1.0026345E-17
  -28.29000        1.0036668E-17
  -28.14750        1.0034238E-17
  -28.00500        1.0027999E-17
  -27.86250        1.0028878E-17
  -27.72000        1.0043319E-17
  -27.57750        1.0069542E-17
  -27.43500        1.0098720E-17
  -27.29250        1.0120369E-17
  -27.15000        1.0128662E-17
  -27.00750        1.0125884E-17
  -26.86500        1.0120963E-17
  -26.72250        1.0124005E-17
  -26.58000        1.0140147E-17
  -26.43750        1.0166456E-17
  -26.29500        1.0193726E-17
  -26.15250        1.0212079E-17
  -26.01000        1.0216954E-17
  -25.86750        1.0211876E-17
  -25.72500        1.0206311E-17
  -25.58250        1.0209948E-17
  -25.44000        1.0226830E-17
  -25.29750        1.0252930E-17
  -25.15500        1.0278592E-17
  -25.01250        1.0294379E-17
  -24.87000        1.0296766E-17
  -24.72750        1.0290252E-17
  -24.58500        1.0284600E-17
  -24.44250        1.0288914E-17
  -24.30000        1.0306134E-17
  -24.15750        1.0331284E-17
  -24.01500        1.0354554E-17
  -23.87250        1.0367304E-17
  -23.73000        1.0367374E-17
  -23.58750        1.0360439E-17
  -23.44500        1.0356578E-17
  -23.30250        1.0364138E-17
  -23.16000        1.0384595E-17
  -23.01750        1.0411554E-17
  -22.87500        1.0434517E-17
  -22.73250        1.0445157E-17
  -22.59000        1.0442316E-17
  -22.44750        1.0432706E-17
  -22.30500        1.0426874E-17
  -22.16250        1.0432849E-17
  -22.02000        1.0451318E-17
  -21.87750        1.0475250E-17
  -21.73500        1.0494179E-17
  -21.59250        1.0500592E-17
  -21.45000        1.0494533E-17
  -21.30750        1.0483625E-17
  -21.16500        1.0478478E-17
  -21.02250        1.0486239E-17
  -20.88000        1.0506172E-17
  -20.73750        1.0529964E-17
  -20.59500        1.0546613E-17
  -20.45250        1.0548976E-17
  -20.31000        1.0538060E-17
  -20.16750        1.0522479E-17
  -20.02500        1.0513380E-17
  -19.88250        1.0517890E-17
  -19.74000        1.0534990E-17
  -19.59750        1.0556287E-17
  -19.45500        1.0571223E-17
  -19.31250        1.0573530E-17
  -19.17000        1.0565078E-17
  -19.02750        1.0554761E-17
  -18.88500        1.0553094E-17
  -18.74250        1.0565770E-17
  -18.60000        1.0590052E-17
  -18.45750        1.0616193E-17
  -18.31500        1.0633054E-17
  -18.17250        1.0634557E-17
  -18.03000        1.0623150E-17
  -17.88750        1.0608209E-17
  -17.74500        1.0600387E-17
  -17.60250        1.0605285E-17
  -17.46000        1.0620263E-17
  -17.31750        1.0636268E-17
  -17.17500        1.0643529E-17
  -17.03250        1.0637679E-17
  -16.89000        1.0622569E-17
  -16.74750        1.0608105E-17
  -16.60500        1.0604383E-17
  -16.46250        1.0615682E-17
  -16.32000        1.0637912E-17
  -16.17750        1.0661058E-17
  -16.03500        1.0675122E-17
  -15.89250        1.0676013E-17
  -15.75000        1.0667823E-17
  -15.60750        1.0660180E-17
  -15.46500        1.0662289E-17
  -15.32250        1.0677291E-17
  -15.18000        1.0700343E-17
  -15.03750        1.0721557E-17
  -14.89500        1.0731998E-17
  -14.75250        1.0729094E-17
  -14.61000        1.0718180E-17
  -14.46750        1.0709238E-17
  -14.32500        1.0710839E-17
  -14.18250        1.0724933E-17
  -14.04000        1.0745679E-17
  -13.89750        1.0763003E-17
  -13.75500        1.0768725E-17
  -13.61250        1.0761563E-17
  -13.47000        1.0747946E-17
  -13.32750        1.0738175E-17
  -13.18500        1.0740234E-17
  -13.04250        1.0755001E-17
  -12.90000        1.0775771E-17
  -12.75750        1.0792358E-17
  -12.61500        1.0797299E-17
  -12.47250        1.0790391E-17
  -12.33000        1.0778800E-17
  -12.18750        1.0772673E-17
  -12.04500        1.0778902E-17
  -11.90250        1.0796852E-17
  -11.76000        1.0818635E-17
  -11.61750        1.0833819E-17
  -11.47500        1.0835733E-17
  -11.33250        1.0825556E-17
  -11.19000        1.0811704E-17
  -11.04750        1.0804856E-17
  -10.90500        1.0811601E-17
  -10.76250        1.0830518E-17
  -10.62000        1.0853070E-17
  -10.47750        1.0868769E-17
  -10.33500        1.0871499E-17
  -10.19250        1.0863194E-17
  -10.05000        1.0852632E-17
  -9.907500        1.0850071E-17
  -9.765000        1.0860959E-17
  -9.622500        1.0882524E-17
  -9.480000        1.0905320E-17
  -9.337500        1.0918844E-17
  -9.195000        1.0917829E-17
  -9.052500        1.0905474E-17
  -8.910000        1.0891608E-17
  -8.767500        1.0886909E-17
  -8.625000        1.0896597E-17
  -8.482500        1.0917397E-17
  -8.340000        1.0939562E-17
  -8.197500        1.0952744E-17
  -8.055000        1.0952167E-17
  -7.912500        1.0941424E-17
  -7.770000        1.0930202E-17
  -7.627500        1.0928343E-17
  -7.485000        1.0939827E-17
  -7.342500        1.0960290E-17
  -7.200000        1.0979610E-17
  -7.057500        1.0987974E-17
  -6.915000        1.0981814E-17
  -6.772500        1.0966023E-17
  -6.630000        1.0951137E-17
  -6.487500        1.0947155E-17
  -6.345000        1.0957722E-17
  -6.202500        1.0978129E-17
  -6.060000        1.0998288E-17
  -5.917500        1.1008881E-17
  -5.775000        1.1006945E-17
  -5.632500        1.0997555E-17
  -5.490000        1.0990606E-17
  -5.347500        1.0994685E-17
  -5.205000        1.1011753E-17
  -5.062500        1.1035845E-17
  -4.920000        1.1056587E-17
  -4.777500        1.1065389E-17
  -4.635000        1.1060580E-17
  -4.492500        1.1048380E-17
  -4.350000        1.1039142E-17
  -4.207500        1.1041142E-17
  -4.065000        1.1055662E-17
  -3.922500        1.1076316E-17
  -3.780000        1.1093017E-17
  -3.637500        1.1098136E-17
  -3.495000        1.1091137E-17
  -3.352500        1.1078873E-17
  -3.210000        1.1071382E-17
  -3.067500        1.1075748E-17
  -2.925000        1.1091771E-17
  -2.782500        1.1112061E-17
  -2.640000        1.1126532E-17
  -2.497500        1.1128536E-17
  -2.355000        1.1118948E-17
  -2.212500        1.1105678E-17
  -2.070000        1.1098937E-17
  -1.927500        1.1105066E-17
  -1.785000        1.1122716E-17
  -1.642500        1.1143649E-17
  -1.500000        1.1157718E-17
  -1.357500        1.1158997E-17
  -1.215000        1.1149358E-17
  -1.072500        1.1137316E-17
 -0.9300000        1.1132839E-17
 -0.7875000        1.1141267E-17
 -0.6450000        1.1160021E-17
 -0.5025000        1.1180125E-17
 -0.3600000        1.1191631E-17
 -0.2175000        1.1189677E-17
 -7.5000003E-02    1.1177514E-17
  6.7500003E-02    1.1164630E-17
  0.2100000        1.1161107E-17
  0.3525000        1.1171550E-17
  0.4950000        1.1192295E-17
  0.6375000        1.1213557E-17
  0.7800000        1.1225264E-17
  0.9225000        1.1223067E-17
   1.065000        1.1210924E-17
   1.207500        1.1198685E-17
   1.350000        1.1196136E-17
   1.492500        1.1207099E-17
   1.635000        1.1227116E-17
   1.777500        1.1246156E-17
   1.920000        1.1254681E-17
   2.062500        1.1249470E-17
   2.205000        1.1235643E-17
   2.347500        1.1223678E-17
   2.490000        1.1223187E-17
   2.632500        1.1237177E-17
   2.775000        1.1260240E-17
   2.917500        1.1281742E-17
   3.060000        1.1292122E-17
   3.202500        1.1288508E-17
   3.345000        1.1276303E-17
   3.487500        1.1265816E-17
   3.630000        1.1265982E-17
   3.772500        1.1278958E-17
   3.915000        1.1298841E-17
   4.057500        1.1315271E-17
   4.200000        1.1319733E-17
   4.342500        1.1310749E-17
   4.485000        1.1294849E-17
   4.627500        1.1282722E-17
   4.770000        1.1282878E-17
   4.912500        1.1296625E-17
   5.055000        1.1317366E-17
   5.197500        1.1334610E-17
   5.340000        1.1340276E-17
   5.482500        1.1333480E-17
   5.625000        1.1320954E-17
   5.767500        1.1312869E-17
   5.910000        1.1316618E-17
   6.052500        1.1332336E-17
   6.195000        1.1352835E-17
   6.337500        1.1368002E-17
   6.480000        1.1370957E-17
   6.622500        1.1362246E-17
   6.765000        1.1349537E-17
   6.907500        1.1342992E-17
   7.050000        1.1349143E-17
   7.192500        1.1366965E-17
   7.335000        1.1388513E-17
   7.477500        1.1403735E-17
   7.620000        1.1406541E-17
   7.762500        1.1398436E-17
   7.905000        1.1387552E-17
   8.047500        1.1383661E-17
   8.190000        1.1392204E-17
   8.332500        1.1410966E-17
   8.475000        1.1431422E-17
   8.617500        1.1443913E-17
   8.760000        1.1443529E-17
   8.902500        1.1433108E-17
   9.045000        1.1421509E-17
   9.187500        1.1418226E-17
   9.330000        1.1427561E-17
   9.472500        1.1445940E-17
   9.615000        1.1463978E-17
   9.757500        1.1472112E-17
   9.900000        1.1466362E-17
   10.04250        1.1450782E-17
   10.18500        1.1435074E-17
   10.32750        1.1428814E-17
   10.47000        1.1435762E-17
   10.61250        1.1451700E-17
   10.75500        1.1467092E-17
   10.89750        1.1472979E-17
   11.04000        1.1466527E-17
   11.18250        1.1452869E-17
   11.32500        1.1442087E-17
   11.46750        1.1443155E-17
   11.61000        1.1458456E-17
   11.75250        1.1482227E-17
   11.89500        1.1503864E-17
   12.03750        1.1514147E-17
   12.18000        1.1510662E-17
   12.32250        1.1499158E-17
   12.46500        1.1490033E-17
   12.60750        1.1492056E-17
   12.75000        1.1507087E-17
   12.89250        1.1528980E-17
   13.03500        1.1547307E-17
   13.17750        1.1553666E-17
   13.32000        1.1546767E-17
   13.46250        1.1533237E-17
   13.60500        1.1523650E-17
   13.74750        1.1526167E-17
   13.89000        1.1541601E-17
   14.03250        1.1562886E-17
   14.17500        1.1579258E-17
   14.31750        1.1582660E-17
   14.46000        1.1572519E-17
   14.60250        1.1556056E-17
   14.74500        1.1543956E-17
   14.88750        1.1544012E-17
   15.03000        1.1556559E-17
   15.17250        1.1574415E-17
   15.31500        1.1587345E-17
   15.45750        1.1588316E-17
   15.60000        1.1577785E-17
   15.74250        1.1563428E-17
   15.88500        1.1555498E-17
   16.02750        1.1560623E-17
   16.17000        1.1577792E-17
   16.31250        1.1598937E-17
   16.45500        1.1613747E-17
   16.59750        1.1615816E-17
   16.74000        1.1606401E-17
   16.88250        1.1593574E-17
   17.02500        1.1587277E-17
   17.16750        1.1593305E-17
   17.31000        1.1609839E-17
   17.45250        1.1628609E-17
   17.59500        1.1639960E-17
   17.73750        1.1638730E-17
   17.88000        1.1627382E-17
   18.02250        1.1614493E-17
   18.16500        1.1609546E-17
   18.30750        1.1617168E-17
   18.45000        1.1634338E-17
   18.59250        1.1652238E-17
   18.73500        1.1661630E-17
   18.87750        1.1658486E-17
   19.02000        1.1646457E-17
   19.16250        1.1634690E-17
   19.30500        1.1632297E-17
   19.44750        1.1642835E-17
   19.59000        1.1662145E-17
   19.73250        1.1680854E-17
   19.87500        1.1690040E-17
   20.01750        1.1686608E-17
   20.16000        1.1675135E-17
   20.30250        1.1665054E-17
   20.44500        1.1664884E-17
   20.58750        1.1676997E-17
   20.73000        1.1696123E-17
   20.87250        1.1712502E-17
   21.01500        1.1717801E-17
   21.15750        1.1710220E-17
   21.30000        1.1695680E-17
   21.44250        1.1684360E-17
   21.58500        1.1684635E-17
   21.72750        1.1698067E-17
   21.87000        1.1718477E-17
   22.01250        1.1735653E-17
   22.15500        1.1741484E-17
   22.29750        1.1734816E-17
   22.44000        1.1722106E-17
   22.58250        1.1713470E-17
   22.72500        1.1716497E-17
   22.86750        1.1731582E-17
   23.01000        1.1751568E-17
   23.15250        1.1765983E-17
   23.29500        1.1767299E-17
   23.43750        1.1755475E-17
   23.58000        1.1738058E-17
   23.72250        1.1725743E-17
   23.86500        1.1726066E-17
   24.00750        1.1738996E-17
   24.15000        1.1757054E-17
   24.29250        1.1769892E-17
   24.43500        1.1770552E-17
   24.57750        1.1759672E-17
   24.72000        1.1745082E-17
   24.86250        1.1737080E-17
   25.00500        1.1742207E-17
   25.14750        1.1759285E-17
   25.29000        1.1780090E-17
   25.43250        1.1794257E-17
   25.57500        1.1795463E-17
   25.71750        1.1785188E-17
   25.86000        1.1771798E-17
   26.00250        1.1765514E-17
   26.14500        1.1772310E-17
   26.28750        1.1790375E-17
   26.43000        1.1811270E-17
   26.57250        1.1825032E-17
   26.71500        1.1826147E-17
   26.85750        1.1816797E-17
   27.00000        1.1805438E-17
   27.14250        1.1801607E-17
   27.28500        1.1810101E-17
   27.42750        1.1828059E-17
   27.57000        1.1846677E-17
   27.71250        1.1856533E-17
   27.85500        1.1853263E-17
   27.99750        1.1840195E-17
   28.14000        1.1826333E-17
   28.28250        1.1820949E-17
   28.42500        1.1828040E-17
   28.56750        1.1844002E-17
   28.71000        1.1859909E-17
   28.85250        1.1866989E-17
   28.99500        1.1861974E-17
   29.13750        1.1849090E-17
   29.28000        1.1837472E-17
   29.42250        1.1835611E-17
   29.56500        1.1846185E-17
   29.70750        1.1864428E-17
   29.85000        1.1881018E-17
   29.99250        1.1887732E-17
   30.13500        1.1882434E-17
   30.27750        1.1870369E-17
   30.42000        1.1860962E-17
   30.56250        1.1862081E-17
   30.70500        1.1875208E-17
   30.84750        1.1894475E-17
   30.99000        1.1910163E-17
   31.13250        1.1914533E-17
   31.27500        1.1906496E-17
   31.41750        1.1892261E-17
   31.56000        1.1881589E-17
   31.70250        1.1881896E-17
   31.84500        1.1893769E-17
   31.98750        1.1910628E-17
   32.13000        1.1922740E-17
   32.27250        1.1923154E-17
   32.41500        1.1911993E-17
   32.55750        1.1896454E-17
   32.70000        1.1886513E-17
   32.84250        1.1888912E-17
   32.98500        1.1903025E-17
   33.12750        1.1921141E-17
   33.27000        1.1933003E-17
   33.41250        1.1931893E-17
   33.55500        1.1918634E-17
   33.69750        1.1901071E-17
   33.84000        1.1889386E-17
   33.98250        1.1890017E-17
   34.12500        1.1901861E-17
   34.26750        1.1917044E-17
   34.41000        1.1925771E-17
   34.55250        1.1922359E-17
   34.69500        1.1908796E-17
   34.83750        1.1893680E-17
   34.98000        1.1887160E-17
   35.12250        1.1894907E-17
   35.26500        1.1914717E-17
   35.40750        1.1937811E-17
   35.55000        1.1954026E-17
   35.69250        1.1957808E-17
   35.83500        1.1951418E-17
   35.97750        1.1943446E-17
   36.12000        1.1943548E-17
   36.26250        1.1956576E-17
   36.40500        1.1979618E-17
   36.54750        1.2003731E-17
   36.69000        1.2019275E-17
   36.83250        1.2021657E-17
   36.97500        1.2014018E-17
   37.11750        1.2005248E-17
   37.26000        1.2004574E-17
   37.40250        1.2015950E-17
   37.54500        1.2035643E-17
   37.68750        1.2054466E-17
   37.83000        1.2063270E-17
   37.97250        1.2058415E-17
   38.11500        1.2043902E-17
   38.25750        1.2028938E-17
   38.40000        1.2022397E-17
   38.54250        1.2027538E-17
   38.68500        1.2040160E-17
   38.82750        1.2051274E-17
   38.97000        1.2052658E-17
   39.11250        1.2041910E-17
   39.25500        1.2023952E-17
   39.39750        1.2008084E-17
   39.54000        1.2002383E-17
   39.68250        1.2008855E-17
   39.82500        1.2022260E-17
   39.96750        1.2033333E-17
   40.11000        1.2034426E-17
   40.25250        1.2024160E-17
   40.39500        1.2008264E-17
   40.53750        1.1996099E-17
   40.68000        1.1994971E-17
   40.82250        1.2005688E-17
   40.96500        1.2022050E-17
   41.10750        1.2034581E-17
   41.25000        1.2036252E-17
   41.39250        1.2026715E-17
   41.53500        1.2012495E-17
   41.67750        1.2003021E-17
   41.82000        1.2004892E-17
   41.96250        1.2017869E-17
   42.10500        1.2035020E-17
   42.24750        1.2046954E-17
   42.39000        1.2047574E-17
   42.53250        1.2037859E-17
   42.67500        1.2025383E-17
   42.81750        1.2019800E-17
   42.96000        1.2027043E-17
   43.10250        1.2045694E-17
   43.24500        1.2067762E-17
   43.38750        1.2083396E-17
   43.53000        1.2086722E-17
   43.67250        1.2079277E-17
   43.81500        1.2069004E-17
   43.95750        1.2065366E-17
   44.10000        1.2073564E-17
   44.24250        1.2091322E-17
   44.38500        1.2110205E-17
   44.52750        1.2120694E-17
   44.67000        1.2117953E-17
   44.81250        1.2104826E-17
   44.95500        1.2090246E-17
   45.09750        1.2083965E-17
   45.24000        1.2090788E-17
   45.38250        1.2107736E-17
   45.52500        1.2125857E-17
   45.66750        1.2135588E-17
   45.81000        1.2132462E-17
   45.95250        1.2119740E-17
   46.09500        1.2106394E-17
   46.23750        1.2101666E-17
   46.38000        1.2109479E-17
   46.52250        1.2126055E-17
   46.66500        1.2142171E-17
   46.80750        1.2148696E-17
   46.95000        1.2142082E-17
   47.09250        1.2126510E-17
   47.23500        1.2111407E-17
   47.37750        1.2105849E-17
   47.52000        1.2113182E-17
   47.66250        1.2129098E-17
   47.80500        1.2144312E-17
   47.94750        1.2150175E-17
   48.09000        1.2143879E-17
   48.23250        1.2130109E-17
   48.37500        1.2118179E-17
   48.51750        1.2116392E-17
   48.66000        1.2127047E-17
   48.80250        1.2145072E-17
   48.94500        1.2161116E-17
   49.08750        1.2167196E-17
   49.23000        1.2161486E-17
   49.37250        1.2149385E-17
   49.51500        1.2140196E-17
   49.65750        1.2141480E-17
   49.80000        1.2154463E-17
   49.94250        1.2173294E-17
   50.08500        1.2188572E-17
   50.22750        1.2192999E-17
   50.37000        1.2185749E-17
   50.51250        1.2172911E-17
   50.65500        1.2163760E-17
   50.79750        1.2165111E-17
   50.94000        1.2177218E-17
   51.08250        1.2193641E-17
   51.22500        1.2205211E-17
   51.36750        1.2205629E-17
   51.51000        1.2195326E-17
   51.65250        1.2181220E-17
   51.79500        1.2172523E-17
   51.93750        1.2175127E-17
   52.08000        1.2187987E-17
   52.22250        1.2203699E-17
   52.36500        1.2212940E-17
   52.50750        1.2210088E-17
   52.65000        1.2196644E-17
   52.79250        1.2180348E-17
   52.93500        1.2170552E-17
   53.07750        1.2172612E-17
   53.22000        1.2184713E-17
   53.36250        1.2199035E-17
   53.50500        1.2206569E-17
   53.64750        1.2202664E-17
   53.79000        1.2189941E-17
   53.93250        1.2176778E-17
   54.07500        1.2172276E-17
   54.21750        1.2180714E-17
   54.36000        1.2198859E-17
   54.50250        1.2217774E-17
   54.64500        1.2228065E-17
   54.78750        1.2225433E-17
   54.93000        1.2213203E-17
   55.07250        1.2200295E-17
   55.21500        1.2195860E-17
   55.35750        1.2203800E-17
   55.50000        1.2220469E-17
   55.64250        1.2236926E-17
   55.78500        1.2244403E-17
   55.92750        1.2239670E-17
   56.07000        1.2227074E-17
   56.21250        1.2216001E-17
   56.35500        1.2215257E-17
   56.49750        1.2227768E-17
   56.64000        1.2248743E-17
   56.78250        1.2268453E-17
   56.92500        1.2277944E-17
   57.06750        1.2274283E-17
   57.21000        1.2262217E-17
   57.35250        1.2251236E-17
   57.49500        1.2249848E-17
   57.63750        1.2260474E-17
   57.78000        1.2278043E-17
   57.92250        1.2293088E-17
   58.06500        1.2297489E-17
   58.20750        1.2289369E-17
   58.35000        1.2274227E-17
   58.49250        1.2261622E-17
   58.63500        1.2259417E-17
   58.77750        1.2269059E-17
   58.92000        1.2284726E-17
   59.06250        1.2296854E-17
   59.20500        1.2297915E-17
   59.34750        1.2286966E-17
   59.49000        1.2270239E-17
   59.63250        1.2257444E-17
   59.77500        1.2256002E-17
   59.91750        1.2266689E-17
   60.06000        1.2283292E-17
   60.20250        1.2296439E-17
   60.34500        1.2299279E-17
   60.48750        1.2291563E-17
   60.63000        1.2279675E-17
   60.77250        1.2272618E-17
   60.91500        1.2276422E-17
   61.05750        1.2290367E-17
   61.20000        1.2307334E-17
   61.34250        1.2318065E-17
   61.48500        1.2316771E-17
   61.62750        1.2304674E-17
   61.77000        1.2289355E-17
   61.91250        1.2280276E-17
   62.05500        1.2283186E-17
   62.19750        1.2296781E-17
   62.34000        1.2313607E-17
   62.48250        1.2324656E-17
   62.62500        1.2324845E-17
   62.76750        1.2316048E-17
   62.91000        1.2305864E-17
   63.05250        1.2302848E-17
   63.19500        1.2311138E-17
   63.33750        1.2327756E-17
   63.48000        1.2344248E-17
   63.62250        1.2351700E-17
   63.76500        1.2346122E-17
   63.90750        1.2330924E-17
   64.05000        1.2314972E-17
   64.19250        1.2307367E-17
   64.33500        1.2312076E-17
   64.47750        1.2325650E-17
   64.62000        1.2339387E-17
   64.76250        1.2344659E-17
   64.90500        1.2338166E-17
   65.04750        1.2323952E-17
   65.19000        1.2310955E-17
   65.33250        1.2307558E-17
   65.47500        1.2316451E-17
   65.61750        1.2332911E-17
   65.76000        1.2347571E-17
   65.90250        1.2352047E-17
   66.04500        1.2344023E-17
   66.18750        1.2328744E-17
   66.33000        1.2315982E-17
   66.47250        1.2314277E-17
   66.61500        1.2325884E-17
   66.75750        1.2345472E-17
   66.90000        1.2363321E-17
   67.04250        1.2371138E-17
   67.18500        1.2366969E-17
   67.32750        1.2356285E-17
   67.47000        1.2348594E-17
   67.61250        1.2351624E-17
   67.75500        1.2366579E-17
   67.89750        1.2387346E-17
   68.04000        1.2404105E-17
   68.18250        1.2409201E-17
   68.32500        1.2401725E-17
   68.46750        1.2388068E-17
   68.61000        1.2378090E-17
   68.75250        1.2379223E-17
   68.89500        1.2392020E-17
   69.03750        1.2409833E-17
   69.18000        1.2422783E-17
   69.32250        1.2423642E-17
   69.46500        1.2412104E-17
   69.60750        1.2394894E-17
   69.75000        1.2381677E-17
   69.89250        1.2379274E-17
   70.03500        1.2387651E-17
   70.17750        1.2400104E-17
   70.32000        1.2407493E-17
   70.46250        1.2403945E-17
   70.60500        1.2390546E-17
   70.74750        1.2374820E-17
   70.89000        1.2366265E-17
   71.03250        1.2370656E-17
   71.17500        1.2386557E-17
   71.31750        1.2406117E-17
   71.46000        1.2419686E-17
   71.60250        1.2421450E-17
   71.74500        1.2412719E-17
   71.88750        1.2400895E-17
   72.03000        1.2394813E-17
   72.17250        1.2399279E-17
   72.31500        1.2412135E-17
   72.45750        1.2425644E-17
   72.60000        1.2431309E-17
   72.74250        1.2425200E-17
   72.88500        1.2410521E-17
   73.02750        1.2395837E-17
   73.17000        1.2390008E-17
   73.31250        1.2396869E-17
   73.45500        1.2412904E-17
   73.59750        1.2429288E-17
   73.74000        1.2437118E-17
   73.88250        1.2432649E-17
   74.02500        1.2419408E-17
   74.16750        1.2405911E-17
   74.31000        1.2400388E-17
   74.45250        1.2405720E-17
   74.59500        1.2417681E-17
   74.73750        1.2427555E-17
   74.88000        1.2427540E-17
   75.02250        1.2415670E-17
   75.16500        1.2397226E-17
   75.30750        1.2381751E-17
   75.45000        1.2377432E-17
   75.59250        1.2386217E-17
   75.73500        1.2402621E-17
   75.87750        1.2416971E-17
   76.02000        1.2421143E-17
   76.16250        1.2413377E-17
   76.30500        1.2399255E-17
   76.44750        1.2388287E-17
   76.59000        1.2388133E-17
   76.73250        1.2399968E-17
   76.87500        1.2417771E-17
   77.01750        1.2431994E-17
   77.16000        1.2435368E-17
   77.30250        1.2427367E-17
   77.44500        1.2414600E-17
   77.58750        1.2406875E-17
   77.73000        1.2411283E-17
   77.87250        1.2427858E-17
   78.01500        1.2449413E-17
   78.15750        1.2465700E-17
   78.30000        1.2469380E-17
   78.44250        1.2460286E-17
   78.58500        1.2445398E-17
   78.72750        1.2434598E-17
   78.87000        1.2434746E-17
   79.01250        1.2445637E-17
   79.15500        1.2460254E-17
   79.29750        1.2469144E-17
   79.44000        1.2466239E-17
   79.58250        1.2452630E-17
   79.72500        1.2435987E-17
   79.86750        1.2425987E-17
   80.01000        1.2428498E-17
   80.15250        1.2442023E-17
   80.29500        1.2458548E-17
   80.43750        1.2468279E-17
   80.58000        1.2465443E-17
   80.72250        1.2451656E-17
   80.86500        1.2434894E-17
   81.00750        1.2424674E-17
   81.15000        1.2426391E-17
   81.29250        1.2438197E-17
   81.43500        1.2452277E-17
   81.57750        1.2459705E-17
   81.72000        1.2455918E-17
   81.86250        1.2443484E-17
   82.00500        1.2430485E-17
   82.14750        1.2425522E-17
   82.29000        1.2432379E-17
   82.43250        1.2447593E-17
   82.57500        1.2462421E-17
   82.71750        1.2468025E-17
   82.86000        1.2460750E-17
   83.00250        1.2444330E-17
   83.14500        1.2427668E-17
   83.28750        1.2419568E-17
   83.43000        1.2423579E-17
   83.57250        1.2436054E-17
   83.71500        1.2448583E-17
   83.85750        1.2453267E-17
   84.00000        1.2447619E-17
   84.14250        1.2436110E-17
   84.28500        1.2427402E-17
   84.42750        1.2428950E-17
   84.57000        1.2442279E-17
   84.71250        1.2461832E-17
   84.85500        1.2478113E-17
   84.99750        1.2483279E-17
   85.14000        1.2475805E-17
   85.28250        1.2461414E-17
   85.42500        1.2449667E-17
   85.56750        1.2448293E-17
   85.71000        1.2458630E-17
   85.85250        1.2474944E-17
   85.99500        1.2488001E-17
   86.13750        1.2490750E-17
   86.28000        1.2482634E-17
   86.42250        1.2469939E-17
   86.56500        1.2461937E-17
   86.70750        1.2465159E-17
   86.85000        1.2479279E-17
   86.99250        1.2497122E-17
   87.13500        1.2508844E-17
   87.27750        1.2507785E-17
   87.42000        1.2494504E-17
   87.56250        1.2476531E-17
   87.70500        1.2463991E-17
   87.84750        1.2463680E-17
   87.99000        1.2475136E-17
   88.13250        1.2491053E-17
   88.27500        1.2501766E-17
   88.41750        1.2501092E-17
   88.56000        1.2490028E-17
   88.70250        1.2476059E-17
   88.84500        1.2468532E-17
   88.98750        1.2472862E-17
   89.13000        1.2487113E-17
   89.27250        1.2503005E-17
   89.41500        1.2510790E-17
   89.55750        1.2505063E-17
   89.70000        1.2488038E-17
   89.84250        1.2468318E-17
   89.98500        1.2455892E-17
   90.12750        1.2456342E-17
   90.27000        1.2467719E-17
   90.41250        1.2481921E-17
   90.55500        1.2489708E-17
   90.69750        1.2486322E-17
   90.84000        1.2474320E-17
   90.98250        1.2461946E-17
   91.12500        1.2458036E-17
   91.26750        1.2466576E-17
   91.41000        1.2484196E-17
   91.55250        1.2502108E-17
   91.69500        1.2511343E-17
   91.83750        1.2508097E-17
   91.98000        1.2495997E-17
   92.12250        1.2483894E-17
   92.26500        1.2480552E-17
   92.40750        1.2489410E-17
   92.55000        1.2506571E-17
   92.69250        1.2523202E-17
   92.83500        1.2530855E-17
   92.97750        1.2526515E-17
   93.12000        1.2514298E-17
   93.26250        1.2502828E-17
   93.40500        1.2499893E-17
   93.54750        1.2507667E-17
   93.69000        1.2521383E-17
   93.83250        1.2532276E-17
   93.97500        1.2533005E-17
   94.11750        1.2522241E-17
   94.26000        1.2505632E-17
   94.40250        1.2492542E-17
   94.54500        1.2490494E-17
   94.68750        1.2500708E-17
   94.83000        1.2517378E-17
   94.97250        1.2531166E-17
   95.11500        1.2534764E-17
   95.25750        1.2527189E-17
   95.40000        1.2514213E-17
   95.54250        1.2504685E-17
   95.68500        1.2505008E-17
   95.82750        1.2515133E-17
   95.97000        1.2528527E-17
   96.11250        1.2536164E-17
   96.25500        1.2532105E-17
   96.39750        1.2517299E-17
   96.54000        1.2499249E-17
   96.68250        1.2487701E-17
   96.82500        1.2488925E-17
   96.96750        1.2502015E-17
   97.11000        1.2519430E-17
   97.25250        1.2531475E-17
   97.39500        1.2532036E-17
   97.53750        1.2522120E-17
   97.68000        1.2509085E-17
   97.82250        1.2502050E-17
   97.96500        1.2506249E-17
   98.10750        1.2519773E-17
   98.25000        1.2534679E-17
   98.39250        1.2541803E-17
   98.53500        1.2536402E-17
   98.67750        1.2521179E-17
   98.82000        1.2504868E-17
   98.96250        1.2497162E-17
   99.10500        1.2503022E-17
   99.24750        1.2519747E-17
   99.39000        1.2538582E-17