  -30.00000        4.8965759E-18
  -29.85750        4.9019232E-18
  -29.71500        4.9116996E-18
  -29.57250        4.9243174E-18
  -29.43000        4.9378299E-18
  -29.28750        4.9503033E-18
  -29.14500        4.9601960E-18
  -29.00250        4.9666418E-18
  -28.86000        4.9696043E-18
  -28.71750        4.9698595E-18
  -28.57500        4.9688148E-18
  -28.43250        4.9682056E-18
  -28.29000        4.9697218E-18
  -28.14750        4.9746501E-18
  -28.00500        4.9835982E-18
  -27.86250        4.9963533E-18
  -27.72000        5.0119159E-18
  -27.57750        5.0286870E-18
  -27.43500        5.0447868E-18
  -27.29250        5.0584245E-18
  -27.15000        5.0682601E-18
  -27.00750        5.0736719E-18
  -26.86500        5.0748838E-18
  -26.72250        5.0729213E-18
  -26.58000        5.0694074E-18
  -26.43750        5.0662426E-18
  -26.29500        5.0652272E-18
  -26.15250        5.0677080E-18
  -26.01000        5.0743138E-18
  -25.86750        5.0848380E-18
  -25.72500        5.0982897E-18
  -25.58250        5.1130941E-18
  -25.44000        5.1274168E-18
  -25.29750        5.1395329E-18
  -25.15500        5.1481761E-18
  -25.01250        5.1527951E-18
  -24.87000        5.1536574E-18
  -24.72750        5.1517975E-18
  -24.58500        5.1487977E-18
  -24.44250        5.1464688E-18
  -24.30000        5.1464733E-18
  -24.15750        5.1499934E-18
  -24.01500        5.1574819E-18
  -23.87250        5.1685797E-18
  -23.73000        5.1821815E-18
  -23.58750        5.1966654E-18
  -23.44500        5.2102208E-18
  -23.30250        5.2212137E-18
  -23.16000        5.2285181E-18
  -23.01750        5.2317437E-18
  -22.87500        5.2313168E-18
  -22.73250        5.2283957E-18
  -22.59000        5.2246378E-18
  -22.44750        5.2218651E-18
  -22.30500        5.2216938E-18
  -22.16250        5.2252094E-18
  -22.02000        5.2327433E-18
  -21.87750        5.2438064E-18
  -21.73500        5.2571886E-18
  -21.59250        5.2712051E-18
  -21.45000        5.2840405E-18
  -21.30750        5.2941160E-18
  -21.16500        5.3004088E-18
  -21.02250        5.3026550E-18
  -20.88000        5.3014055E-18
  -20.73750        5.2979049E-18
  -20.59500        5.2938405E-18
  -20.45250        5.2909996E-18
  -20.31000        5.2909032E-18
  -20.16750        5.2944981E-18
  -20.02500        5.3019639E-18
  -19.88250        5.3126742E-18
  -19.74000        5.3253263E-18
  -19.59750        5.3382084E-18
  -19.45500        5.3495549E-18
  -19.31250        5.3579144E-18
  -19.17000        5.3624535E-18
  -19.02750        5.3631376E-18
  -18.88500        5.3607433E-18
  -18.74250        5.3567079E-18
  -18.60000        5.3528388E-18
  -18.45750        5.3509458E-18
  -18.31500        5.3524711E-18
  -18.17250        5.3581906E-18
  -18.03000        5.3680469E-18
  -17.88750        5.3811461E-18
  -17.74500        5.3959250E-18
  -17.60250        5.4104490E-18
  -17.46000        5.4227922E-18
  -17.31750        5.4314135E-18
  -17.17500        5.4354646E-18
  -17.03250        5.4349617E-18
  -16.89000        5.4307815E-18
  -16.74750        5.4244904E-18
  -16.60500        5.4180363E-18
  -16.46250        5.4133594E-18
  -16.32000        5.4120128E-18
  -16.17750        5.4148571E-18
  -16.03500        5.4218984E-18
  -15.89250        5.4323011E-18
  -15.75000        5.4445590E-18
  -15.60750        5.4568104E-18
  -15.46500        5.4672114E-18
  -15.32250        5.4743065E-18
  -15.18000        5.4773237E-18
  -15.03750        5.4763195E-18
  -14.89500        5.4721691E-18
  -14.75250        5.4663817E-18
  -14.61000        5.4607954E-18
  -14.46750        5.4571930E-18
  -14.32500        5.4569386E-18
  -14.18250        5.4606928E-18
  -14.04000        5.4682698E-18
  -13.89750        5.4786753E-18
  -13.75500        5.4902996E-18
  -13.61250        5.5012461E-18
  -13.47000        5.5097070E-18
  -13.32750        5.5143338E-18
  -13.18500        5.5145025E-18
  -13.04250        5.5104456E-18
  -12.90000        5.5032086E-18
  -12.75750        5.4944504E-18
  -12.61500        5.4861191E-18
  -12.47250        5.4800782E-18
  -12.33000        5.4777443E-18
  -12.18750        5.4798189E-18
  -12.04500        5.4861575E-18
  -11.90250        5.4958153E-18
  -11.76000        5.5072486E-18
  -11.61750        5.5186401E-18
  -11.47500        5.5282751E-18
  -11.33250        5.5348942E-18
  -11.19000        5.5379469E-18
  -11.04750        5.5376967E-18
  -10.90500        5.5351572E-18
  -10.76250        5.5318725E-18
  -10.62000        5.5295882E-18
  -10.47750        5.5298835E-18
  -10.33500        5.5338321E-18
  -10.19250        5.5417648E-18
  -10.05000        5.5531765E-18
  -9.907500        5.5668048E-18
  -9.765000        5.5808536E-18
  -9.622500        5.5933349E-18
  -9.480000        5.6024496E-18
  -9.337500        5.6069391E-18
  -9.195000        5.6063345E-18
  -9.052500        5.6010500E-18
  -8.910000        5.5923034E-18
  -8.767500        5.5818793E-18
  -8.625000        5.5717827E-18
  -8.482500        5.5638521E-18
  -8.340000        5.5594172E-18
  -8.197500        5.5590582E-18
  -8.055000        5.5625216E-18
  -7.912500        5.5687995E-18
  -7.770000        5.5763595E-18
  -7.627500        5.5834704E-18
  -7.485000        5.5885646E-18
  -7.342500        5.5905639E-18
  -7.200000        5.5891031E-18
  -7.057500        5.5846073E-18
  -6.915000        5.5782074E-18
  -6.772500        5.5715064E-18
  -6.630000        5.5662518E-18
  -6.487500        5.5639667E-18
  -6.345000        5.5656368E-18
  -6.202500        5.5714986E-18
  -6.060000        5.5809876E-18
  -5.917500        5.5928502E-18
  -5.775000        5.6053940E-18
  -5.632500        5.6168277E-18
  -5.490000        5.6256148E-18
  -5.347500        5.6307752E-18
  -5.205000        5.6320710E-18
  -5.062500        5.6300435E-18
  -4.920000        5.6258969E-18
  -4.777500        5.6212436E-18
  -4.635000        5.6177731E-18
  -4.492500        5.6169001E-18
  -4.350000        5.6194713E-18
  -4.207500        5.6255842E-18
  -4.065000        5.6345624E-18
  -3.922500        5.6450949E-18
  -3.780000        5.6555091E-18
  -3.637500        5.6641197E-18
  -3.495000        5.6695873E-18
  -3.352500        5.6712012E-18
  -3.210000        5.6690356E-18
  -3.067500        5.6639460E-18
  -2.925000        5.6574017E-18
  -2.782500        5.6511991E-18
  -2.640000        5.6471037E-18
  -2.497500        5.6464995E-18
  -2.355000        5.6501056E-18
  -2.212500        5.6578256E-18
  -2.070000        5.6687568E-18
  -1.927500        5.6813527E-18
  -1.785000        5.6937265E-18
  -1.642500        5.7040175E-18
  -1.500000        5.7107623E-18
  -1.357500        5.7131872E-18
  -1.215000        5.7113608E-18
  -1.072500        5.7061760E-18
 -0.9300000        5.6991681E-18
 -0.7875000        5.6922004E-18
 -0.6450000        5.6870905E-18
 -0.5025000        5.6852467E-18
 -0.3600000        5.6873920E-18
 -0.2175000        5.6934275E-18
 -7.5000003E-02    5.7024578E-18
  6.7500003E-02    5.7129738E-18
  0.2100000        5.7231539E-18
  0.3525000        5.7312309E-18
  0.4950000        5.7358441E-18
  0.6375000        5.7363168E-18
  0.7800000        5.7327972E-18
  0.9225000        5.7262322E-18
   1.065000        5.7181817E-18
   1.207500        5.7105001E-18
   1.350000        5.7049663E-18
   1.492500        5.7029190E-18
   1.635000        5.7049956E-18
   1.777500        5.7110084E-18
   1.920000        5.7199953E-18
   2.062500        5.7304186E-18
   2.205000        5.7404875E-18
   2.347500        5.7485128E-18
   2.490000        5.7532480E-18
   2.632500        5.7541310E-18
   2.775000        5.7513963E-18
   2.917500        5.7460246E-18
   3.060000        5.7395474E-18
   3.202500        5.7337385E-18
   3.345000        5.7302544E-18
   3.487500        5.7302978E-18
   3.630000        5.7343700E-18
   3.772500        5.7421658E-18
   3.915000        5.7526396E-18
   4.057500        5.7642230E-18
   4.200000        5.7751496E-18
   4.342500        5.7838210E-18
   4.485000        5.7891311E-18
   4.627500        5.7906861E-18
   4.770000        5.7888788E-18
   4.912500        5.7847987E-18
   5.055000        5.7800077E-18
   5.197500        5.7762200E-18
   5.340000        5.7749490E-18
   5.482500        5.7771961E-18
   5.625000        5.7832386E-18
   5.767500        5.7925539E-18
   5.910000        5.8039136E-18
   6.052500        5.8156165E-18
   6.195000        5.8258256E-18
   6.337500        5.8329418E-18
   6.480000        5.8359300E-18
   6.622500        5.8345383E-18
   6.765000        5.8293531E-18
   6.907500        5.8216893E-18
   7.050000        5.8133335E-18
   7.192500        5.8061962E-18
   7.335000        5.8019428E-18
   7.477500        5.8016777E-18
   7.620000        5.8057437E-18
   7.762500        5.8136665E-18
   7.905000        5.8242556E-18
   8.047500        5.8358465E-18
   8.190000        5.8466288E-18
   8.332500        5.8550052E-18
   8.475000        5.8599079E-18
   8.617500        5.8610048E-18
   8.760000        5.8587590E-18
   8.902500        5.8543178E-18
   9.045000        5.8492675E-18
   9.187500        5.8452867E-18
   9.330000        5.8437932E-18
   9.472500        5.8456440E-18
   9.615000        5.8509591E-18
   9.757500        5.8590977E-18
   9.900000        5.8687935E-18
   10.04250        5.8784165E-18
   10.18500        5.8862987E-18
   10.32750        5.8910757E-18
   10.47000        5.8919632E-18
   10.61250        5.8889225E-18
   10.75500        5.8826794E-18
   10.89750        5.8745896E-18
   11.04000        5.8663802E-18
   11.18250        5.8598062E-18
   11.32500        5.8562960E-18
   11.46750        5.8566658E-18
   11.61000        5.8609572E-18
   11.75250        5.8684337E-18
   11.89500        5.8777436E-18
   12.03750        5.8872094E-18
   12.18000        5.8951785E-18
   12.32250        5.9003674E-18
   12.46500        5.9021206E-18
   12.60750        5.9005428E-18
   12.75000        5.8964739E-18
   12.89250        5.8913201E-18
   13.03500        5.8867686E-18
   13.17750        5.8844471E-18
   13.32000        5.8855873E-18
   13.46250        5.8907609E-18
   13.60500        5.8997445E-18
   13.74750        5.9115385E-18
   13.89000        5.9245533E-18
   14.03250        5.9369147E-18
   14.17500        5.9468417E-18
   14.31750        5.9530050E-18
   14.46000        5.9547967E-18
   14.60250        5.9524550E-18
   14.74500        5.9470154E-18
   14.88750        5.9400994E-18
   15.03000        5.9335952E-18
   15.17250        5.9292861E-18
   15.31500        5.9285052E-18
   15.45750        5.9318846E-18
   15.60000        5.9392321E-18
   15.74250        5.9495735E-18
   15.88500        5.9613422E-18
   16.02750        5.9726862E-18
   16.17000        5.9818364E-18
   16.31250        5.9874584E-18
   16.45500        5.9889266E-18
   16.59750        5.9864492E-18
   16.74000        5.9810274E-18
   16.88250        5.9742454E-18
   17.02500        5.9679439E-18
   17.16750        5.9638411E-18
   17.31000        5.9631852E-18
   17.45250        5.9665079E-18
   17.59500        5.9735278E-18
   17.73750        5.9832141E-18
   17.88000        5.9940018E-18
   18.02250        6.0041012E-18
   18.16500        6.0118569E-18
   18.30750        6.0160697E-18
   18.45000        6.0162393E-18
   18.59250        6.0126675E-18
   18.73500        6.0064004E-18
   18.87750        5.9990252E-18
   19.02000        5.9923503E-18
   19.16250        5.9880378E-18
   19.30500        5.9872636E-18
   19.44750        5.9904800E-18
   19.59000        5.9973295E-18
   19.73250        6.0067279E-18
   19.87500        6.0170979E-18
   20.01750        6.0266961E-18
   20.16000        6.0339720E-18
   20.30250        6.0378729E-18
   20.44500        6.0380479E-18
   20.58750        6.0349121E-18
   20.73000        6.0295561E-18
   20.87250        6.0235272E-18
   21.01500        6.0185202E-18
   21.15750        6.0160317E-18
   21.30000        6.0170516E-18
   21.44250        6.0218554E-18
   21.58500        6.0299357E-18
   21.72750        6.0401014E-18
   21.87000        6.0507174E-18
   22.01250        6.0600484E-18
   22.15500        6.0666142E-18
   22.29750        6.0695002E-18
   22.44000        6.0685369E-18
   22.58250        6.0643328E-18
   22.72500        6.0581409E-18
   22.86750        6.0516021E-18
   23.01000        6.0464177E-18
   23.15250        6.0440106E-18
   23.29500        6.0452452E-18
   23.43750        6.0502567E-18
   23.58000        6.0584160E-18
   23.72250        6.0684484E-18
   23.86500        6.0786798E-18
   24.00750        6.0873706E-18
   24.15000        6.0930682E-18
   24.29250        6.0949087E-18
   24.43500        6.0927977E-18
   24.57750        6.0874376E-18
   24.72000        6.0801779E-18
   24.86250        6.0727440E-18
   25.00500        6.0668793E-18
   25.14750        6.0640007E-18
   25.29000        6.0649209E-18
   25.43250        6.0697020E-18
   25.57500        6.0776545E-18
   25.71750        6.0874905E-18
   25.86000        6.0975809E-18
   26.00250        6.1062795E-18
   26.14500        6.1122510E-18
   26.28750        6.1147358E-18
   26.43000        6.1137093E-18
   26.57250        6.1098894E-18
   26.71500        6.1045950E-18
   26.85750        6.0994731E-18
   27.00000        6.0961561E-18
   27.14250        6.0959137E-18
   27.28500        6.0993838E-18
   27.42750        6.1064396E-18
   27.57000        6.1162169E-18
   27.71250        6.1272949E-18
   27.85500        6.1379899E-18
   27.99750        6.1466964E-18
   28.14000        6.1522038E-18
   28.28250        6.1539322E-18
   28.42500        6.1520408E-18
   28.56750        6.1473966E-18
   28.71000        6.1414041E-18
   28.85250        6.1357276E-18
   28.99500        6.1319590E-18
   29.13750        6.1312939E-18
   29.28000        6.1342808E-18
   29.42250        6.1407002E-18
   29.56500        6.1496035E-18
   29.70750        6.1595086E-18
   29.85000        6.1687102E-18
   29.99250        6.1756362E-18
   30.13500        6.1791740E-18
   30.27750        6.1788981E-18
   30.42000        6.1751489E-18
   30.56250        6.1689571E-18
   30.70500        6.1618309E-18
   30.84750        6.1554521E-18
   30.99000        6.1513460E-18
   31.13250        6.1505780E-18
   31.27500        6.1535413E-18
   31.41750        6.1598730E-18
   31.56000        6.1685145E-18
   31.70250        6.1779212E-18
   31.84500        6.1863659E-18
   31.98750        6.1922981E-18
   32.13000        6.1946712E-18
   32.27250        6.1931678E-18
   32.41500        6.1882755E-18
   32.55750        6.1811932E-18
   32.70000        6.1735852E-18
   32.84250        6.1672448E-18
   32.98500        6.1637372E-18
   33.12750        6.1640866E-18
   33.27000        6.1685882E-18
   33.41250        6.1767475E-18
   33.55500        6.1873829E-18
   33.69750        6.1988435E-18
   33.84000        6.2093239E-18
   33.98250        6.2172045E-18
   34.12500        6.2213615E-18
   34.26750        6.2213883E-18
   34.41000        6.2176784E-18
   34.55250        6.2113484E-18
   34.69500        6.2040126E-18
   34.83750        6.1974526E-18
   34.98000        6.1932522E-18
   35.12250        6.1924796E-18
   35.26500        6.1954819E-18
   35.40750        6.2018338E-18
   35.55000        6.2104481E-18
   35.69250        6.2198126E-18
   35.83500        6.2283048E-18
   35.97750        6.2345149E-18
   36.12000        6.2375242E-18
   36.26250        6.2370787E-18
   36.40500        6.2336376E-18
   36.54750        6.2282850E-18
   36.69000        6.2225195E-18
   36.83250        6.2179526E-18
   36.97500        6.2159819E-18
   37.11750        6.2174973E-18
   37.26000        6.2226895E-18
   37.40250        6.2310072E-18
   37.54500        6.2412696E-18
   37.68750        6.2519196E-18
   37.83000        6.2613494E-18
   37.97250        6.2682399E-18
   38.11500        6.2718228E-18
   38.25750        6.2720300E-18
   38.40000        6.2694877E-18
   38.54250        6.2653828E-18
   38.68500        6.2612117E-18
   38.82750        6.2584791E-18
   38.97000        6.2583935E-18
   39.11250        6.2616166E-18
   39.25500        6.2681158E-18
   39.39750        6.2771527E-18
   39.54000        6.2874131E-18
   39.68250        6.2972656E-18
   39.82500        6.3050961E-18
   39.96750        6.3096431E-18
   40.11000        6.3102710E-18
   40.25250        6.3071091E-18
   40.39500        6.3010264E-18
   40.53750        6.2934502E-18
   40.68000        6.2860718E-18
   40.82250        6.2805020E-18
   40.96500        6.2779534E-18
   41.10750        6.2790077E-18
   41.25000        6.2835063E-18
   41.39250        6.2905890E-18
   41.53500        6.2988584E-18
   41.67750        6.3066541E-18
   41.82000        6.3123770E-18
   41.96250        6.3148134E-18
   42.10500        6.3133894E-18
   42.24750        6.3083039E-18
   42.39000        6.3005053E-18
   42.53250        6.2915122E-18
   42.67500        6.2831084E-18
   42.81750        6.2769836E-18
   42.96000        6.2743949E-18
   43.10250        6.2759281E-18
   43.24500        6.2813966E-18
   43.38750        6.2899066E-18
   43.53000        6.3000532E-18
   43.67250        6.3102102E-18
   43.81500        6.3188463E-18
   43.95750        6.3248165E-18
   44.10000        6.3275706E-18
   44.24250        6.3272522E-18
   44.38500        6.3246589E-18
   44.52750        6.3210773E-18
   44.67000        6.3180150E-18
   44.81250        6.3168818E-18
   44.95500        6.3186817E-18
   45.09750        6.3237871E-18
   45.24000        6.3318476E-18
   45.38250        6.3418598E-18
   45.52500        6.3523757E-18
   45.66750        6.3618076E-18
   45.81000        6.3687551E-18
   45.95250        6.3722864E-18
   46.09500        6.3721147E-18
   46.23750        6.3686418E-18
   46.38000        6.3628689E-18
   46.52250        6.3561993E-18
   46.66500        6.3501717E-18
   46.80750        6.3461640E-18
   46.95000        6.3451366E-18
   47.09250        6.3474366E-18
   47.23500        6.3527289E-18
   47.37750        6.3600577E-18
   47.52000        6.3680417E-18
   47.66250        6.3751654E-18
   47.80500        6.3801073E-18
   47.94750        6.3820285E-18
   48.09000        6.3807567E-18
   48.23250        6.3768251E-18
   48.37500        6.3713566E-18
   48.51750        6.3658248E-18
   48.66000        6.3617543E-18
   48.80250        6.3604109E-18
   48.94500        6.3625529E-18
   49.08750        6.3682795E-18
   49.23000        6.3770017E-18
   49.37250        6.3875375E-18
   49.51500        6.3983198E-18
   49.65750        6.4076818E-18
   49.80000        6.4141752E-18
   49.94250        6.4168540E-18
   50.08500        6.4154759E-18
   50.22750        6.4105612E-18
   50.37000        6.4032965E-18
   50.51250        6.3952944E-18
   50.65500        6.3882700E-18
   50.79750        6.3836944E-18
   50.94000        6.3825132E-18
   51.08250        6.3849761E-18
   51.22500        6.3906175E-18
   51.36750        6.3983744E-18
   51.51000        6.4068112E-18
   51.65250        6.4144097E-18
   51.79500        6.4198625E-18
   51.93750        6.4223258E-18
   52.08000        6.4215871E-18
   52.22250        6.4181167E-18
   52.36500        6.4129778E-18
   52.50750        6.4076210E-18
   52.65000        6.4035898E-18
   52.79250        6.4021906E-18
   52.93500        6.4042184E-18
   53.07750        6.4097808E-18
   53.22000        6.4182797E-18
   53.36250        6.4285470E-18
   53.50500        6.4390911E-18
   53.64750        6.4484110E-18
   53.79000        6.4552902E-18
   53.93250        6.4590258E-18
   54.07500        6.4595407E-18
   54.21750        6.4573780E-18
   54.36000        6.4535750E-18
   54.50250        6.4494507E-18
   54.64500        6.4463368E-18
   54.78750        6.4453041E-18
   54.93000        6.4469315E-18
   55.07250        6.4511733E-18
   55.21500        6.4573507E-18
   55.35750        6.4642883E-18
   55.50000        6.4705674E-18
   55.64250        6.4748414E-18
   55.78500        6.4761409E-18
   55.92750        6.4740962E-18
   56.07000        6.4690268E-18
   56.21250        6.4618754E-18
   56.35500        6.4540209E-18
   56.49750        6.4469994E-18
   56.64000        6.4422104E-18
   56.78250        6.4406541E-18
   56.92500        6.4427456E-18
   57.06750        6.4482372E-18
   57.21000        6.4562597E-18
   57.35250        6.4654745E-18
   57.49500        6.4743282E-18
   57.63750        6.4813518E-18
   57.78000        6.4854633E-18
   57.92250        6.4861941E-18
   58.06500        6.4838006E-18
   58.20750        6.4792127E-18
   58.35000        6.4738335E-18
   58.49250        6.4692398E-18
   58.63500        6.4668455E-18
   58.77750        6.4676082E-18
   58.92000        6.4718400E-18
   59.06250        6.4791585E-18
   59.20500        6.4885714E-18
   59.34750        6.4986709E-18
   59.49000        6.5079055E-18
   59.63250        6.5148666E-18
   59.77500        6.5185567E-18
   59.91750        6.5185865E-18
   60.06000        6.5152600E-18
   60.20250        6.5095367E-18
   60.34500        6.5028518E-18
   60.48750        6.4968325E-18
   60.63000        6.4929641E-18
   60.77250        6.4922776E-18
   60.91500        6.4951351E-18
   61.05750        6.5011615E-18
   61.20000        6.5093369E-18
   61.34250        6.5182283E-18
   61.48500        6.5262946E-18
   61.62750        6.5322035E-18
   61.77000        6.5350925E-18
   61.91250        6.5347264E-18
   62.05500        6.5315401E-18
   62.19750        6.5265514E-18
   62.34000        6.5211677E-18
   62.48250        6.5169193E-18
   62.62500        6.5151549E-18
   62.76750        6.5167592E-18
   62.91000        6.5219506E-18
   63.05250        6.5302121E-18
   63.19500        6.5403748E-18
   63.33750        6.5508490E-18
   63.48000        6.5599554E-18
   63.62250        6.5662718E-18
   63.76500        6.5689262E-18
   63.90750        6.5677640E-18
   64.05000        6.5633576E-18
   64.19250        6.5568725E-18
   64.33500        6.5498208E-18
   64.47750        6.5437605E-18
   64.62000        6.5399989E-18
   64.76250        6.5393483E-18
   64.90500        6.5419717E-18
   65.04750        6.5473480E-18
   65.19000        6.5543678E-18
   65.33250        6.5615490E-18
   65.47500        6.5673405E-18
   65.61750        6.5704553E-18
   65.76000        6.5701575E-18
   65.90250        6.5664422E-18
   66.04500        6.5600501E-18
   66.18750        6.5523193E-18
   66.33000        6.5449012E-18
   66.47250        6.5394194E-18
   66.61500        6.5371381E-18
   66.75750        6.5387205E-18
   66.90000        6.5441116E-18
   67.04250        6.5525642E-18
   67.18500        6.5627848E-18
   67.32750        6.5731763E-18
   67.47000        6.5821288E-18
   67.61250        6.5883174E-18
   67.75500        6.5909553E-18
   67.89750        6.5899502E-18
   68.04000        6.5859351E-18
   68.18250        6.5801436E-18
   68.32500        6.5741606E-18
   68.46750        6.5695851E-18
   68.61000        6.5676933E-18
   68.75250        6.5691677E-18
   68.89500        6.5739695E-18
   69.03750        6.5813695E-18
   69.18000        6.5901206E-18
   69.32250        6.5987320E-18
   69.46500        6.6057721E-18
   69.60750        6.6101475E-18
   69.75000        6.6113002E-18
   69.89250        6.6093088E-18
   70.03500        6.6048697E-18
   70.17750        6.5991733E-18
   70.32000        6.5936792E-18
   70.46250        6.5898361E-18
   70.60500        6.5887856E-18
   70.74750        6.5911170E-18
   70.89000        6.5967302E-18
   71.03250        6.6048486E-18
   71.17500        6.6141771E-18
   71.31750        6.6231847E-18
   71.46000        6.6304275E-18
   71.60250        6.6348488E-18
   71.74500        6.6359787E-18
   71.88750        6.6340075E-18
   72.03000        6.6297178E-18
   72.17250        6.6243159E-18
   72.31500        6.6191882E-18
   72.45750        6.6156400E-18
   72.60000        6.6146523E-18
   72.74250        6.6166913E-18
   72.88500        6.6216122E-18
   73.02750        6.6286731E-18
   73.17000        6.6366706E-18
   73.31250        6.6441781E-18
   73.45500        6.6498509E-18
   73.59750        6.6527159E-18
   73.74000        6.6523900E-18
   73.88250        6.6491623E-18
   74.02500        6.6439246E-18
   74.16750        6.6379681E-18
   74.31000        6.6327006E-18
   74.45250        6.6293551E-18
   74.59500        6.6287512E-18
   74.73750        6.6311451E-18
   74.88000        6.6361983E-18
   75.02250        6.6430499E-18
   75.16500        6.6504759E-18
   75.30750        6.6571210E-18
   75.45000        6.6617582E-18
   75.59250        6.6635342E-18
   75.73500        6.6621648E-18
   75.87750        6.6580140E-18
   76.02000        6.6520430E-18
   76.16250        6.6456224E-18
   76.30500        6.6402437E-18
   76.44750        6.6371984E-18
   76.59000        6.6373051E-18
   76.73250        6.6407474E-18
   76.87500        6.6470513E-18
   77.01750        6.6552069E-18
   77.16000        6.6638857E-18
   77.30250        6.6717096E-18
   77.44500        6.6775114E-18
   77.58750        6.6805451E-18
   77.73000        6.6806200E-18
   77.87250        6.6781380E-18
   78.01500        6.6740236E-18
   78.15750        6.6695544E-18
   78.30000        6.6661108E-18
   78.44250        6.6648920E-18
   78.58500        6.6666530E-18
   78.72750        6.6715268E-18
   78.87000        6.6789876E-18
   79.01250        6.6879579E-18
   79.15500        6.6970486E-18
   79.29750        6.7048601E-18
   79.44000        6.7102765E-18
   79.58250        6.7126815E-18
   79.72500        6.7120644E-18
   79.86750        6.7089981E-18
   80.01000        6.7045065E-18
   80.15250        6.6998627E-18
   80.29500        6.6963468E-18
   80.43750        6.6950034E-18
   80.58000        6.6964398E-18
   80.72250        6.7006903E-18
   80.86500        6.7071944E-18
   81.00750        6.7148880E-18
   81.15000        6.7224166E-18
   81.29250        6.7284145E-18
   81.43500        6.7318063E-18
   81.57750        6.7320413E-18
   81.72000        6.7292078E-18
   81.86250        6.7240015E-18
   82.00500        6.7175611E-18
   82.14750        6.7112129E-18
   82.29000        6.7061985E-18
   82.43250        6.7034316E-18
   82.57500        6.7033356E-18
   82.71750        6.7057795E-18
   82.86000        6.7101115E-18
   83.00250        6.7152830E-18
   83.14500        6.7200463E-18
   83.28750        6.7231987E-18
   83.43000        6.7238307E-18
   83.57250        6.7215319E-18
   83.71500        6.7165060E-18
   83.85750        6.7095506E-18
   84.00000        6.7019071E-18
   84.14250        6.6949976E-18
   84.28500        6.6901210E-18
   84.42750        6.6881800E-18
   84.57000        6.6895006E-18
   84.71250        6.6937837E-18
   84.85500        6.7001903E-18
   84.99750        6.7075211E-18
   85.14000        6.7144554E-18
   85.28250        6.7197932E-18
   85.42500        6.7226693E-18
   85.56750        6.7227086E-18
   85.71000        6.7201001E-18
   85.85250        6.7155709E-18
   85.99500        6.7102604E-18
   86.13750        6.7055037E-18
   86.28000        6.7025581E-18
   86.42250        6.7023285E-18
   86.56500        6.7051670E-18
   86.70750        6.7107844E-18
   86.85000        6.7183175E-18
   86.99250        6.7265169E-18
   87.13500        6.7340219E-18
   87.27750        6.7396414E-18
   87.42000        6.7425833E-18
   87.56250        6.7425928E-18
   87.70500        6.7399793E-18
   87.84750        6.7355415E-18
   87.99000        6.7304179E-18
   88.13250        6.7258817E-18
   88.27500        6.7231123E-18
   88.41750        6.7229758E-18
   88.56000        6.7258506E-18
   88.70250        6.7315387E-18
   88.84500        6.7392940E-18
   88.98750        6.7479703E-18
   89.13000        6.7562719E-18
   89.27250        6.7630390E-18
   89.41500        6.7675050E-18
   89.55750        6.7694621E-18
   89.70000        6.7692900E-18
   89.84250        6.7678512E-18
   89.98500        6.7662907E-18
   90.12750        6.7657869E-18
   90.27000        6.7673093E-18
   90.41250        6.7714312E-18
   90.55500        6.7782145E-18
   90.69750        6.7871824E-18
   90.84000        6.7973918E-18
   90.98250        6.8075844E-18
   91.12500        6.8164149E-18
   91.26750        6.8227118E-18
   91.41000        6.8257228E-18
   91.55250        6.8252910E-18
   91.69500        6.8219053E-18
   91.83750        6.8166101E-18
   91.98000        6.8107864E-18
   92.12250        6.8058576E-18
   92.26500        6.8029964E-18
   92.40750        6.8028942E-18
   92.55000        6.8056442E-18
   92.69250        6.8107541E-18
   92.83500        6.8172694E-18
   92.97750        6.8239754E-18
   93.12000        6.8296362E-18
   93.26250        6.8332307E-18
   93.40500        6.8341551E-18
   93.54750        6.8323497E-18
   93.69000        6.8283321E-18
   93.83250        6.8231184E-18
   93.97500        6.8180217E-18
   94.11750        6.8143830E-18
   94.26000        6.8132737E-18
   94.40250        6.8152486E-18
   94.54500        6.8202133E-18
   94.68750        6.8274388E-18
   94.83000        6.8357172E-18
   94.97250        6.8436188E-18
   95.11500        6.8497793E-18
   95.25750        6.8531637E-18
   95.40000        6.8532439E-18
   95.54250        6.8500783E-18
   95.68500        6.8442826E-18
   95.82750        6.8369100E-18
   95.97000        6.8292598E-18
   96.11250        6.8226378E-18
   96.25500        6.8181086E-18
   96.39750        6.8162846E-18
   96.54000        6.8171966E-18
   96.68250        6.8202799E-18
   96.82500        6.8245002E-18
   96.96750        6.8285873E-18
   97.11000        6.8313273E-18
   97.25250        6.8318385E-18
   97.39500        6.8297673E-18
   97.53750        6.8253481E-18
   97.68000        6.8193398E-18
   97.82250        6.8128485E-18
   97.96500        6.8070971E-18
   98.10750        6.8031846E-18
   98.25000        6.8018843E-18
   98.39250        6.8035006E-18
   98.53500        6.8078089E-18
   98.67750        6.8140839E-18
   98.82000        6.8212134E-18
   98.96250        6.8278999E-18
   99.10500        6.8329068E-18
   99.24750        6.8353152E-18
   99.39000        6.8347242E-18