  -30.00000        9.7844703E-19
  -29.85750        9.8019931E-19
  -29.71500        9.8339739E-19
  -29.57250        9.8751313E-19
  -29.43000        9.9190536E-19
  -29.28750        9.9594789E-19
  -29.14500        9.9914867E-19
  -29.00250        1.0012395E-18
  -28.86000        1.0022155E-18
  -28.71750        1.0023274E-18
  -28.57500        1.0020215E-18
  -28.43250        1.0018472E-18
  -28.29000        1.0023454E-18
  -28.14750        1.0039350E-18
  -28.00500        1.0068211E-18
  -27.86250        1.0109471E-18
  -27.72000        1.0159937E-18
  -27.57750        1.0214398E-18
  -27.43500        1.0266651E-18
  -27.29250        1.0310779E-18
  -27.15000        1.0342388E-18
  -27.00750        1.0359521E-18
  -26.86500        1.0363033E-18
  -26.72250        1.0356394E-18
  -26.58000        1.0344941E-18
  -26.43750        1.0334802E-18
  -26.29500        1.0331691E-18
  -26.15250        1.0339831E-18
  -26.01000        1.0361168E-18
  -25.86750        1.0395032E-18
  -25.72500        1.0438283E-18
  -25.58250        1.0485905E-18
  -25.44000        1.0532013E-18
  -25.29750        1.0570987E-18
  -25.15500        1.0598669E-18
  -25.01250        1.0613220E-18
  -24.87000        1.0615529E-18
  -24.72750        1.0609028E-18
  -24.58500        1.0598971E-18
  -24.44250        1.0591313E-18
  -24.30000        1.0591416E-18
  -24.15750        1.0602979E-18
  -24.01500        1.0627285E-18
  -23.87250        1.0662993E-18
  -23.73000        1.0706466E-18
  -23.58750        1.0752532E-18
  -23.44500        1.0795502E-18
  -23.30250        1.0830305E-18
  -23.16000        1.0853468E-18
  -23.01750        1.0863815E-18
  -22.87500        1.0862726E-18
  -22.73250        1.0853903E-18
  -22.59000        1.0842636E-18
  -22.44750        1.0834731E-18
  -22.30500        1.0835278E-18
  -22.16250        1.0847585E-18
  -22.02000        1.0872413E-18
  -21.87750        1.0907868E-18
  -21.73500        1.0949795E-18
  -21.59250        1.0992692E-18
  -21.45000        1.1030898E-18
  -21.30750        1.1059754E-18
  -21.16500        1.1076562E-18
  -21.02250        1.1081097E-18
  -20.88000        1.1075642E-18
  -20.73750        1.1064536E-18
  -20.59500        1.1053335E-18
  -20.45250        1.1047715E-18
  -20.31000        1.1052371E-18
  -20.16750        1.1070031E-18
  -20.02500        1.1100841E-18
  -19.88250        1.1142279E-18
  -19.74000        1.1189610E-18
  -19.59750        1.1236884E-18
  -19.45500        1.1278163E-18
  -19.31250        1.1308832E-18
  -19.17000        1.1326576E-18
  -19.02750        1.1331897E-18
  -18.88500        1.1327992E-18
  -18.74250        1.1320091E-18
  -18.60000        1.1314390E-18
  -18.45750        1.1316797E-18
  -18.31500        1.1331754E-18
  -18.17250        1.1361373E-18
  -18.03000        1.1404951E-18
  -17.88750        1.1459022E-18
  -17.74500        1.1517929E-18
  -17.60250        1.1574807E-18
  -17.46000        1.1622863E-18
  -17.31750        1.1656677E-18
  -17.17500        1.1673276E-18
  -17.03250        1.1672775E-18
  -16.89000        1.1658355E-18
  -16.74750        1.1635651E-18
  -16.60500        1.1611603E-18
  -16.46250        1.1593089E-18
  -16.32000        1.1585594E-18
  -16.17750        1.1592199E-18
  -16.03500        1.1613100E-18
  -15.89250        1.1645702E-18
  -15.75000        1.1685199E-18
  -15.60750        1.1725581E-18
  -15.46500        1.1760797E-18
  -15.32250        1.1785919E-18
  -15.18000        1.1798064E-18
  -15.03750        1.1796969E-18
  -14.89500        1.1784995E-18
  -14.75250        1.1766674E-18
  -14.61000        1.1747726E-18
  -14.46750        1.1733831E-18
  -14.32500        1.1729390E-18
  -14.18250        1.1736564E-18
  -14.04000        1.1754788E-18
  -13.89750        1.1780902E-18
  -13.75500        1.1809849E-18
  -13.61250        1.1835798E-18
  -13.47000        1.1853321E-18
  -13.32750        1.1858574E-18
  -13.18500        1.1850058E-18
  -13.04250        1.1828960E-18
  -12.90000        1.1798995E-18
  -12.75750        1.1765772E-18
  -12.61500        1.1735779E-18
  -12.47250        1.1715217E-18
  -12.33000        1.1708832E-18
  -12.18750        1.1718972E-18
  -12.04500        1.1745140E-18
  -11.90250        1.1784054E-18
  -11.76000        1.1830300E-18
  -11.61750        1.1877446E-18
  -11.47500        1.1919308E-18
  -11.33250        1.1951184E-18
  -11.19000        1.1970719E-18
  -11.04750        1.1978242E-18
  -10.90500        1.1976577E-18
  -10.76250        1.1970319E-18
  -10.62000        1.1964836E-18
  -10.47750        1.1965167E-18
  -10.33500        1.1974969E-18
  -10.19250        1.1995791E-18
  -10.05000        1.2026722E-18
  -9.907500        1.2064516E-18
  -9.765000        1.2104180E-18
  -9.622500        1.2139930E-18
  -9.480000        1.2166366E-18
  -9.337500        1.2179571E-18
  -9.195000        1.2177935E-18
  -9.052500        1.2162499E-18
  -8.910000        1.2136729E-18
  -8.767500        1.2105779E-18
  -8.625000        1.2075413E-18
  -8.482500        1.2050851E-18
  -8.340000        1.2035784E-18
  -8.197500        1.2031751E-18
  -8.055000        1.2037978E-18
  -7.912500        1.2051642E-18
  -7.770000        1.2068551E-18
  -7.627500        1.2084020E-18
  -7.485000        1.2093869E-18
  -7.342500        1.2095304E-18
  -7.200000        1.2087527E-18
  -7.057500        1.2071993E-18
  -6.915000        1.2052174E-18
  -6.772500        1.2032851E-18
  -6.630000        1.2019110E-18
  -6.487500        1.2015232E-18
  -6.345000        1.2023731E-18
  -6.202500        1.2044783E-18
  -6.060000        1.2076173E-18
  -5.917500        1.2113783E-18
  -5.775000        1.2152446E-18
  -5.632500        1.2187018E-18
  -5.490000        1.2213392E-18
  -5.347500        1.2229264E-18
  -5.205000        1.2234553E-18
  -5.062500        1.2231373E-18
  -4.920000        1.2223588E-18
  -4.777500        1.2216063E-18
  -4.635000        1.2213660E-18
  -4.492500        1.2220233E-18
  -4.350000        1.2237730E-18
  -4.207500        1.2265688E-18
  -4.065000        1.2301182E-18
  -3.922500        1.2339331E-18
  -3.780000        1.2374267E-18
  -3.637500        1.2400317E-18
  -3.495000        1.2413205E-18
  -3.352500        1.2410943E-18
  -3.210000        1.2394250E-18
  -3.067500        1.2366413E-18
  -2.925000        1.2332663E-18
  -2.782500        1.2299180E-18
  -2.640000        1.2271975E-18
  -2.497500        1.2255803E-18
  -2.355000        1.2253342E-18
  -2.212500        1.2264756E-18
  -2.070000        1.2287701E-18
  -1.927500        1.2317802E-18
  -1.785000        1.2349554E-18
  -1.642500        1.2377457E-18
  -1.500000        1.2397179E-18
  -1.357500        1.2406483E-18
  -1.215000        1.2405689E-18
  -1.072500        1.2397616E-18
 -0.9300000        1.2386920E-18
 -0.7875000        1.2379043E-18
 -0.6450000        1.2379017E-18
 -0.5025000        1.2390347E-18
 -0.3600000        1.2414266E-18
 -0.2175000        1.2449441E-18
 -7.5000003E-02    1.2492190E-18
  6.7500003E-02    1.2537182E-18
  0.2100000        1.2578417E-18
  0.3525000        1.2610373E-18
  0.4950000        1.2629082E-18
  0.6375000        1.2632953E-18
  0.7800000        1.2623158E-18
  0.9225000        1.2603474E-18
   1.065000        1.2579590E-18
   1.207500        1.2557982E-18
   1.350000        1.2544591E-18
   1.492500        1.2543595E-18
   1.635000        1.2556547E-18
   1.777500        1.2582066E-18
   1.920000        1.2616143E-18
   2.062500        1.2652970E-18
   2.205000        1.2686130E-18
   2.347500        1.2709814E-18
   2.490000        1.2719948E-18
   2.632500        1.2714940E-18
   2.775000        1.2695981E-18
   2.917500        1.2666870E-18
   3.060000        1.2633329E-18
   3.202500        1.2601976E-18
   3.345000        1.2579104E-18
   3.487500        1.2569478E-18
   3.630000        1.2575415E-18
   3.772500        1.2596356E-18
   3.915000        1.2629016E-18
   4.057500        1.2668107E-18
   4.200000        1.2707485E-18
   4.342500        1.2741394E-18
   4.485000        1.2765605E-18
   4.627500        1.2778133E-18
   4.770000        1.2779465E-18
   4.912500        1.2772275E-18
   5.055000        1.2760718E-18
   5.197500        1.2749502E-18
   5.340000        1.2742886E-18
   5.482500        1.2743814E-18
   5.625000        1.2753290E-18
   5.767500        1.2770138E-18
   5.910000        1.2791215E-18
   6.052500        1.2812030E-18
   6.195000        1.2827704E-18
   6.337500        1.2834086E-18
   6.480000        1.2828735E-18
   6.622500        1.2811589E-18
   6.765000        1.2785087E-18
   6.907500        1.2753762E-18
   7.050000        1.2723359E-18
   7.192500        1.2699687E-18
   7.335000        1.2687493E-18
   7.477500        1.2689586E-18
   7.620000        1.2706359E-18
   7.762500        1.2735771E-18
   7.905000        1.2773772E-18
   8.047500        1.2815110E-18
   8.190000        1.2854270E-18
   8.332500        1.2886521E-18
   8.475000        1.2908795E-18
   8.617500        1.2920276E-18
   8.760000        1.2922557E-18
   8.902500        1.2919264E-18
   9.045000        1.2915277E-18
   9.187500        1.2915620E-18
   9.330000        1.2924319E-18
   9.472500        1.2943485E-18
   9.615000        1.2972778E-18
   9.757500        1.3009459E-18
   9.900000        1.3048927E-18
   10.04250        1.3085626E-18
   10.18500        1.3114143E-18
   10.32750        1.3130232E-18
   10.47000        1.3131617E-18
   10.61250        1.3118435E-18
   10.75500        1.3093233E-18
   10.89750        1.3060549E-18
   11.04000        1.3026115E-18
   11.18250        1.2995796E-18
   11.32500        1.2974517E-18
   11.46750        1.2965318E-18
   11.61000        1.2968792E-18
   11.75250        1.2983053E-18
   11.89500        1.3004218E-18
   12.03750        1.3027319E-18
   12.18000        1.3047405E-18
   12.32250        1.3060624E-18
   12.46500        1.3064985E-18
   12.60750        1.3060719E-18
   12.75000        1.3050170E-18
   12.89250        1.3037263E-18
   13.03500        1.3026711E-18
   13.17750        1.3023037E-18
   13.32000        1.3029687E-18
   13.46250        1.3048283E-18
   13.60500        1.3078222E-18
   13.74750        1.3116652E-18
   13.89000        1.3158976E-18
   14.03250        1.3199684E-18
   14.17500        1.3233473E-18
   14.31750        1.3256322E-18
   14.46000        1.3266336E-18
   14.60250        1.3264123E-18
   14.74500        1.3252627E-18
   14.88750        1.3236441E-18
   15.03000        1.3220859E-18
   15.17250        1.3210764E-18
   15.31500        1.3209709E-18
   15.45750        1.3219276E-18
   15.60000        1.3238811E-18
   15.74250        1.3265600E-18
   15.88500        1.3295394E-18
   16.02750        1.3323195E-18
   16.17000        1.3344253E-18
   16.31250        1.3355009E-18
   16.45500        1.3353913E-18
   16.59750        1.3341830E-18
   16.74000        1.3322012E-18
   16.88250        1.3299468E-18
   17.02500        1.3280000E-18
   17.16750        1.3268988E-18
   17.31000        1.3270271E-18
   17.45250        1.3285351E-18
   17.59500        1.3313129E-18
   17.73750        1.3350112E-18
   17.88000        1.3391141E-18
   18.02250        1.3430328E-18
   18.16500        1.3462126E-18
   18.30750        1.3482273E-18
   18.45000        1.3488510E-18
   18.59250        1.3480950E-18
   18.73500        1.3462030E-18
   18.87750        1.3436076E-18
   19.02000        1.3408472E-18
   19.16250        1.3384619E-18
   19.30500        1.3368885E-18
   19.44750        1.3363731E-18
   19.59000        1.3369292E-18
   19.73250        1.3383400E-18
   19.87500        1.3402186E-18
   20.01750        1.3420997E-18
   20.16000        1.3435447E-18
   20.30250        1.3442344E-18
   20.44500        1.3440321E-18
   20.58750        1.3430067E-18
   20.73000        1.3414114E-18
   20.87250        1.3396312E-18
   21.01500        1.3381043E-18
   21.15750        1.3372347E-18
   21.30000        1.3373112E-18
   21.44250        1.3384466E-18
   21.58500        1.3405506E-18
   21.72750        1.3433451E-18
   21.87000        1.3464216E-18
   22.01250        1.3493287E-18
   22.15500        1.3516728E-18
   22.29750        1.3532072E-18
   22.44000        1.3538875E-18
   22.58250        1.3538781E-18
   22.72500        1.3535163E-18
   22.86750        1.3532349E-18
   23.01000        1.3534651E-18
   23.15250        1.3545461E-18
   23.29500        1.3566515E-18
   23.43750        1.3597485E-18
   23.58000        1.3635963E-18
   23.72250        1.3677806E-18
   23.86500        1.3717856E-18
   24.00750        1.3750863E-18
   24.15000        1.3772486E-18
   24.29250        1.3780200E-18
   24.43500        1.3773857E-18
   24.57750        1.3755770E-18
   24.72000        1.3730269E-18
   24.86250        1.3702827E-18
   25.00500        1.3678946E-18
   25.14750        1.3663014E-18
   25.29000        1.3657484E-18
   25.43250        1.3662490E-18
   25.57500        1.3675944E-18
   25.71750        1.3694067E-18
   25.86000        1.3712265E-18
   26.00250        1.3726040E-18
   26.14500        1.3731949E-18
   26.28750        1.3728278E-18
   26.43000        1.3715474E-18
   26.57250        1.3696125E-18
   26.71500        1.3674566E-18
   26.85750        1.3656087E-18
   27.00000        1.3645857E-18
   27.14250        1.3647836E-18
   27.28500        1.3663897E-18
   27.42750        1.3693337E-18
   27.57000        1.3732994E-18
   27.71250        1.3777869E-18
   27.85500        1.3822126E-18
   27.99750        1.3860292E-18
   28.14000        1.3888262E-18
   28.28250        1.3904003E-18
   28.42500        1.3907818E-18
   28.56750        1.3902128E-18
   28.71000        1.3890905E-18
   28.85250        1.3878849E-18
   28.99500        1.3870433E-18
   29.13750        1.3869005E-18
   29.28000        1.3876108E-18
   29.42250        1.3891085E-18
   29.56500        1.3911178E-18
   29.70750        1.3932088E-18
   29.85000        1.3948879E-18
   29.99250        1.3957102E-18
   30.13500        1.3953875E-18
   30.27750        1.3938588E-18
   30.42000        1.3913171E-18
   30.56250        1.3881756E-18
   30.70500        1.3849893E-18
   30.84750        1.3823470E-18
   30.99000        1.3807605E-18
   31.13250        1.3805670E-18
   31.27500        1.3818678E-18
   31.41750        1.3845107E-18
   31.56000        1.3881135E-18
   31.70250        1.3921313E-18
   31.84500        1.3959535E-18
   31.98750        1.3990157E-18
   32.13000        1.4009058E-18
   32.27250        1.4014483E-18
   32.41500        1.4007388E-18
   32.55750        1.3991276E-18
   32.70000        1.3971494E-18
   32.84250        1.3954145E-18
   32.98500        1.3944867E-18
   33.12750        1.3947755E-18
   33.27000        1.3964593E-18
   33.41250        1.3994581E-18
   33.55500        1.4034546E-18
   33.69750        1.4079569E-18
   33.84000        1.4123887E-18
   33.98250        1.4161926E-18
   34.12500        1.4189253E-18
   34.26750        1.4203337E-18
   34.41000        1.4203985E-18
   34.55250        1.4193301E-18
   34.69500        1.4175247E-18
   34.83750        1.4154776E-18
   34.98000        1.4136788E-18
   35.12250        1.4125093E-18
   35.26500        1.4121653E-18
   35.40750        1.4126252E-18
   35.55000        1.4136651E-18
   35.69250        1.4149211E-18
   35.83500        1.4159778E-18
   35.97750        1.4164591E-18
   36.12000        1.4161130E-18
   36.26250        1.4148620E-18
   36.40500        1.4128244E-18
   36.54750        1.4102995E-18
   36.69000        1.4077212E-18
   36.83250        1.4055847E-18
   36.97500        1.4043578E-18
   37.11750        1.4043929E-18
   37.26000        1.4058539E-18
   37.40250        1.4086767E-18
   37.54500        1.4125752E-18
   37.68750        1.4170947E-18
   37.83000        1.4216995E-18
   37.97250        1.4258802E-18
   38.11500        1.4292481E-18
   38.25750        1.4316009E-18
   38.40000        1.4329436E-18
   38.54250        1.4334663E-18
   38.68500        1.4334881E-18
   38.82750        1.4333788E-18
   38.97000        1.4334825E-18
   39.11250        1.4340479E-18
   39.25500        1.4351790E-18
   39.39750        1.4368153E-18
   39.54000        1.4387415E-18
   39.68250        1.4406307E-18
   39.82500        1.4421112E-18
   39.96750        1.4428542E-18
   40.11000        1.4426546E-18
   40.25250        1.4414917E-18
   40.39500        1.4395482E-18
   40.53750        1.4371849E-18
   40.68000        1.4348687E-18
   40.82250        1.4330800E-18
   40.96500        1.4322129E-18
   41.10750        1.4324976E-18
   41.25000        1.4339600E-18
   41.39250        1.4364174E-18
   41.53500        1.4395196E-18
   41.67750        1.4428144E-18
   41.82000        1.4458288E-18
   41.96250        1.4481502E-18
   42.10500        1.4495011E-18
   42.24750        1.4497839E-18
   42.39000        1.4490974E-18
   42.53250        1.4477117E-18
   42.67500        1.4460091E-18
   42.81750        1.4443983E-18
   42.96000        1.4432236E-18
   43.10250        1.4426871E-18
   43.24500        1.4428099E-18
   43.38750        1.4434331E-18
   43.53000        1.4442644E-18
   43.67250        1.4449539E-18
   43.81500        1.4451810E-18
   43.95750        1.4447306E-18
   44.10000        1.4435454E-18
   44.24250        1.4417428E-18
   44.38500        1.4396008E-18
   44.52750        1.4375084E-18
   44.67000        1.4358964E-18
   44.81250        1.4351553E-18
   44.95500        1.4355551E-18
   45.09750        1.4371831E-18
   45.24000        1.4399167E-18
   45.38250        1.4434371E-18
   45.52500        1.4472866E-18
   45.66750        1.4509586E-18
   45.81000        1.4540009E-18
   45.95250        1.4561040E-18
   46.09500        1.4571606E-18
   46.23750        1.4572754E-18
   46.38000        1.4567328E-18
   46.52250        1.4559328E-18
   46.66500        1.4553076E-18
   46.80750        1.4552369E-18
   46.95000        1.4559796E-18
   47.09250        1.4576292E-18
   47.23500        1.4600949E-18
   47.37750        1.4631181E-18
   47.52000        1.4663200E-18
   47.66250        1.4692738E-18
   47.80500        1.4715905E-18
   47.94750        1.4730050E-18
   48.09000        1.4734355E-18
   48.23250        1.4730023E-18
   48.37500        1.4720001E-18
   48.51750        1.4708279E-18
   48.66000        1.4698973E-18
   48.80250        1.4695388E-18
   48.94500        1.4699310E-18
   49.08750        1.4710685E-18
   49.23000        1.4727688E-18
   49.37250        1.4747143E-18
   49.51500        1.4765135E-18
   49.65750        1.4777769E-18
   49.80000        1.4781888E-18
   49.94250        1.4775665E-18
   50.08500        1.4759048E-18
   50.22750        1.4733872E-18
   50.37000        1.4703673E-18
   50.51250        1.4673095E-18
   50.65500        1.4647036E-18
   50.79750        1.4629693E-18
   50.94000        1.4623673E-18
   51.08250        1.4629486E-18
   51.22500        1.4645435E-18
   51.36750        1.4668042E-18
   51.51000        1.4692800E-18
   51.65250        1.4715109E-18
   51.79500        1.4731156E-18
   51.93750        1.4738596E-18
   52.08000        1.4736896E-18
   52.22250        1.4727382E-18
   52.36500        1.4712962E-18
   52.50750        1.4697590E-18
   52.65000        1.4685563E-18
   52.79250        1.4680682E-18
   52.93500        1.4685525E-18
   53.07750        1.4700852E-18
   53.22000        1.4725386E-18
   53.36250        1.4756005E-18
   53.50500        1.4788378E-18
   53.64750        1.4817864E-18
   53.79000        1.4840462E-18
   53.93250        1.4853647E-18
   54.07500        1.4856830E-18
   54.21750        1.4851412E-18
   54.36000        1.4840449E-18
   54.50250        1.4828023E-18
   54.64500        1.4818449E-18
   54.78750        1.4815495E-18
   54.93000        1.4821671E-18
   55.07250        1.4837745E-18
   55.21500        1.4862526E-18
   55.35750        1.4893025E-18
   55.50000        1.4924975E-18
   55.64250        1.4953612E-18
   55.78500        1.4974692E-18
   55.92750        1.4985352E-18
   56.07000        1.4984753E-18
   56.21250        1.4974219E-18
   56.35500        1.4956934E-18
   56.49750        1.4937217E-18
   56.64000        1.4919631E-18
   56.78250        1.4908069E-18
   56.92500        1.4905047E-18
   57.06750        1.4911284E-18
   57.21000        1.4925629E-18
   57.35250        1.4945312E-18
   57.49500        1.4966440E-18
   57.63750        1.4984739E-18
   57.78000        1.4996371E-18
   57.92250        1.4998780E-18
   58.06500        1.4991295E-18
   58.20750        1.4975434E-18
   58.35000        1.4954668E-18
   58.49250        1.4933757E-18
   58.63500        1.4917724E-18
   58.77750        1.4910766E-18
   58.92000        1.4915342E-18
   59.06250        1.4931686E-18
   59.20500        1.4957824E-18
   59.34750        1.4990039E-18
   59.49000        1.5023641E-18
   59.63250        1.5053877E-18
   59.77500        1.5076777E-18
   59.91750        1.5089810E-18
   60.06000        1.5092331E-18
   60.20250        1.5085712E-18
   60.34500        1.5073125E-18
   60.48750        1.5059001E-18
   60.63000        1.5048165E-18
   60.77250        1.5044831E-18
   60.91500        1.5051652E-18
   61.05750        1.5069055E-18
   61.20000        1.5095080E-18
   61.34250        1.5125767E-18
   61.48500        1.5156026E-18
   61.62750        1.5180735E-18
   61.77000        1.5195830E-18
   61.91250        1.5199083E-18
   62.05500        1.5190483E-18
   62.19750        1.5172153E-18
   62.34000        1.5147903E-18
   62.48250        1.5122507E-18
   62.62500        1.5100886E-18
   62.76750        1.5087245E-18
   62.91000        1.5084333E-18
   63.05250        1.5092884E-18
   63.19500        1.5111446E-18
   63.33750        1.5136587E-18
   63.48000        1.5163566E-18
   63.62250        1.5187304E-18
   63.76500        1.5203458E-18
   63.90750        1.5209350E-18
   64.05000        1.5204510E-18
   64.19250        1.5190705E-18
   64.33500        1.5171483E-18
   64.47750        1.5151427E-18
   64.62000        1.5135196E-18
   64.76250        1.5126714E-18
   64.90500        1.5128499E-18
   65.04750        1.5141307E-18
   65.19000        1.5164031E-18
   65.33250        1.5193919E-18
   65.47500        1.5227078E-18
   65.61750        1.5259152E-18
   65.76000        1.5286168E-18
   65.90250        1.5305327E-18
   66.04500        1.5315535E-18
   66.18750        1.5317592E-18
   66.33000        1.5313900E-18
   66.47250        1.5307824E-18
   66.61500        1.5302823E-18
   66.75750        1.5301652E-18
   66.90000        1.5305762E-18
   67.04250        1.5315082E-18
   67.18500        1.5328115E-18
   67.32750        1.5342336E-18
   67.47000        1.5354687E-18
   67.61250        1.5362185E-18
   67.75500        1.5362500E-18
   67.89750        1.5354426E-18
   68.04000        1.5338246E-18
   68.18250        1.5315827E-18
   68.32500        1.5290448E-18
   68.46750        1.5266248E-18
   68.61000        1.5247414E-18
   68.75250        1.5237296E-18
   68.89500        1.5237664E-18
   69.03750        1.5248330E-18
   69.18000        1.5267205E-18
   69.32250        1.5290801E-18
   69.46500        1.5315017E-18
   69.60750        1.5335937E-18
   69.75000        1.5350541E-18
   69.89250        1.5357148E-18
   70.03500        1.5355620E-18
   70.17750        1.5347314E-18
   70.32000        1.5334830E-18
   70.46250        1.5321600E-18
   70.60500        1.5311302E-18
   70.74750        1.5307178E-18
   70.89000        1.5311316E-18
   71.03250        1.5324161E-18
   71.17500        1.5344299E-18
   71.31750        1.5368723E-18
   71.46000        1.5393480E-18
   71.60250        1.5414557E-18
   71.74500        1.5428798E-18
   71.88750        1.5434553E-18
   72.03000        1.5431962E-18
   72.17250        1.5422784E-18
   72.31500        1.5409955E-18
   72.45750        1.5396962E-18
   72.60000        1.5387202E-18
   72.74250        1.5383410E-18
   72.88500        1.5387226E-18
   73.02750        1.5398948E-18
   73.17000        1.5417416E-18
   73.31250        1.5440210E-18
   73.45500        1.5464090E-18
   73.59750        1.5485657E-18
   73.74000        1.5502139E-18
   73.88250        1.5512045E-18
   74.02500        1.5515542E-18
   74.16750        1.5514385E-18
   74.31000        1.5511442E-18
   74.45250        1.5509928E-18
   74.59500        1.5512577E-18
   74.73750        1.5520995E-18
   74.88000        1.5535294E-18
   75.02250        1.5554091E-18
   75.16500        1.5574782E-18
   75.30750        1.5594035E-18
   75.45000        1.5608386E-18
   75.59250        1.5614901E-18
   75.73500        1.5611774E-18
   75.87750        1.5598782E-18
   76.02000        1.5577535E-18
   76.16250        1.5551339E-18
   76.30500        1.5524649E-18
   76.44750        1.5502230E-18
   76.59000        1.5488142E-18
   76.73250        1.5484841E-18
   76.87500        1.5492643E-18
   77.01750        1.5509679E-18
   77.16000        1.5532351E-18
   77.30250        1.5556120E-18
   77.44500        1.5576429E-18
   77.58750        1.5589573E-18
   77.73000        1.5593354E-18
   77.87250        1.5587437E-18
   78.01500        1.5573410E-18
   78.15750        1.5554563E-18
   78.30000        1.5535371E-18
   78.44250        1.5520713E-18
   78.58500        1.5514949E-18
   78.72750        1.5521017E-18
   78.87000        1.5539722E-18
   79.01250        1.5569492E-18
   79.15500        1.5606668E-18
   79.29750        1.5646287E-18
   79.44000        1.5683203E-18
   79.58250        1.5713173E-18
   79.72500        1.5733666E-18
   79.86750        1.5744289E-18
   80.01000        1.5746607E-18
   80.15250        1.5743682E-18
   80.29500        1.5739293E-18
   80.43750        1.5737169E-18
   80.58000        1.5740244E-18
   80.72250        1.5750060E-18
   80.86500        1.5766406E-18
   81.00750        1.5787210E-18
   81.15000        1.5808823E-18
   81.29250        1.5826634E-18
   81.43500        1.5836021E-18
   81.57750        1.5833416E-18
   81.72000        1.5817188E-18
   81.86250        1.5788184E-18
   82.00500        1.5749652E-18
   82.14750        1.5706612E-18
   82.29000        1.5664835E-18
   82.43250        1.5629728E-18
   82.57500        1.5605323E-18
   82.71750        1.5593672E-18
   82.86000        1.5594615E-18
   83.00250        1.5606014E-18
   83.14500        1.5624196E-18
   83.28750        1.5644684E-18
   83.43000        1.5662964E-18
   83.57250        1.5675330E-18
   83.71500        1.5679597E-18
   83.85750        1.5675554E-18
   84.00000        1.5665039E-18
   84.14250        1.5651552E-18
   84.28500        1.5639461E-18
   84.42750        1.5632991E-18
   84.57000        1.5635177E-18
   84.71250        1.5647205E-18
   84.85500        1.5668133E-18
   84.99750        1.5695156E-18
   85.14000        1.5724228E-18
   85.28250        1.5750893E-18
   85.42500        1.5771138E-18
   85.56750        1.5782049E-18
   85.71000        1.5782309E-18
   85.85250        1.5772392E-18
   85.99500        1.5754541E-18
   86.13750        1.5732403E-18
   86.28000        1.5710426E-18
   86.42250        1.5693062E-18
   86.56500        1.5683865E-18
   86.70750        1.5684760E-18
   86.85000        1.5695679E-18
   86.99250        1.5714621E-18
   87.13500        1.5738196E-18
   87.27750        1.5762475E-18
   87.42000        1.5783862E-18
   87.56250        1.5799836E-18
   87.70500        1.5809359E-18
   87.84750        1.5812923E-18
   87.99000        1.5812328E-18
   88.13250        1.5810245E-18
   88.27500        1.5809723E-18
   88.41750        1.5813619E-18
   88.56000        1.5824055E-18
   88.70250        1.5841930E-18
   88.84500        1.5866617E-18
   88.98750        1.5895902E-18
   89.13000        1.5926347E-18
   89.27250        1.5953977E-18
   89.41500        1.5975185E-18
   89.55750        1.5987621E-18
   89.70000        1.5990771E-18
   89.84250        1.5986111E-18
   89.98500        1.5976760E-18
   90.12750        1.5966763E-18
   90.27000        1.5960230E-18
   90.41250        1.5960531E-18
   90.55500        1.5969701E-18
   90.69750        1.5988145E-18
   90.84000        1.6014531E-18
   90.98250        1.6045992E-18
   91.12500        1.6078506E-18
   91.26750        1.6107480E-18
   91.41000        1.6128528E-18
   91.55250        1.6138301E-18
   91.69500        1.6135269E-18
   91.83750        1.6120120E-18
   91.98000        1.6095745E-18
   92.12250        1.6066702E-18
   92.26500        1.6038243E-18
   92.40750        1.6015242E-18
   92.55000        1.6001212E-18
   92.69250        1.5997703E-18
   92.83500        1.6004165E-18
   92.97750        1.6018239E-18
   93.12000        1.6036350E-18
   93.26250        1.6054454E-18
   93.40500        1.6068812E-18
   93.54750        1.6076649E-18
   93.69000        1.6076719E-18
   93.83250        1.6069559E-18
   93.97500        1.6057450E-18
   94.11750        1.6044047E-18
   94.26000        1.6033605E-18
   94.40250        1.6030046E-18
   94.54500        1.6036009E-18
   94.68750        1.6052185E-18
   94.83000        1.6077077E-18
   94.97250        1.6107338E-18
   95.11500        1.6138476E-18
   95.25750        1.6165846E-18
   95.40000        1.6185600E-18
   95.54250        1.6195429E-18
   95.68500        1.6194930E-18
   95.82750        1.6185653E-18
   95.97000        1.6170804E-18
   96.11250        1.6154632E-18
   96.25500        1.6141674E-18
   96.39750        1.6135875E-18
   96.54000        1.6139742E-18
   96.68250        1.6153745E-18
   96.82500        1.6176090E-18
   96.96750        1.6203027E-18
   97.11000        1.6229605E-18
   97.25250        1.6250769E-18
   97.39500        1.6262465E-18
   97.53750        1.6262532E-18
   97.68000        1.6251101E-18
   97.82250        1.6230447E-18
   97.96500        1.6204434E-18
   98.10750        1.6177668E-18
   98.25000        1.6154620E-18
   98.39250        1.6138802E-18
   98.53500        1.6132204E-18
   98.67750        1.6134924E-18
   98.82000        1.6145118E-18
   98.96250        1.6159253E-18
   99.10500        1.6172739E-18
   99.24750        1.6180790E-18
   99.39000        1.6179482E-18