  -30.000000        4.89664411E-18
  -29.857500        4.90199184E-18
  -29.715000        4.91176994E-18
  -29.572500        4.92439065E-18
  -29.430000        4.93790388E-18
  -29.287500        4.95037901E-18
  -29.145000        4.96027292E-18
  -29.002501        4.96671913E-18
  -28.860001        4.96968127E-18
  -28.717501        4.96993521E-18
  -28.575001        4.96889007E-18
  -28.432501        4.96827920E-18
  -28.290001        4.96979376E-18
  -28.147499        4.97472252E-18
  -28.004999        4.98367096E-18
  -27.862499        4.99642733E-18
  -27.719999        5.01199114E-18
  -27.577499        5.02876471E-18
  -27.434999        5.04486702E-18
  -27.292500        5.05850640E-18
  -27.150000        5.06834365E-18
  -27.007500        5.07375631E-18
  -26.865000        5.07496812E-18
  -26.722500        5.07300481E-18
  -26.580000        5.06948971E-18
  -26.437500        5.06632450E-18
  -26.295000        5.06530872E-18
  -26.152500        5.06778944E-18
  -26.010000        5.07439572E-18
  -25.867500        5.08492159E-18
  -25.725000        5.09837444E-18
  -25.582500        5.11318056E-18
  -25.440001        5.12750443E-18
  -25.297501        5.13962180E-18
  -25.155001        5.14826708E-18
  -25.012501        5.15288606E-18
  -24.870001        5.15374922E-18
  -24.727501        5.15188806E-18
  -24.584999        5.14888788E-18
  -24.442499        5.14655771E-18
  -24.299999        5.14656143E-18
  -24.157499        5.15008026E-18
  -24.014999        5.15756955E-18
  -23.872499        5.16866701E-18
  -23.730000        5.18227041E-18
  -23.587500        5.19675599E-18
  -23.445000        5.21031307E-18
  -23.302500        5.22130796E-18
  -23.160000        5.22861320E-18
  -23.017500        5.23183921E-18
  -22.875000        5.23141238E-18
  -22.732500        5.22849078E-18
  -22.590000        5.22473124E-18
  -22.447500        5.22195605E-18
  -22.305000        5.22178276E-18
  -22.162500        5.22529703E-18
  -22.020000        5.23283100E-18
  -21.877501        5.24389495E-18
  -21.735001        5.25727915E-18
  -21.592501        5.27129820E-18
  -21.450001        5.28413646E-18
  -21.307501        5.29421483E-18
  -21.165001        5.30050885E-18
  -21.022499        5.30275588E-18
  -20.879999        5.30150436E-18
  -20.737499        5.29800125E-18
  -20.594999        5.29393400E-18
  -20.452499        5.29109015E-18
  -20.309999        5.29099172E-18
  -20.167500        5.29458623E-18
  -20.025000        5.30205236E-18
  -19.882500        5.31276435E-18
  -19.740000        5.32541980E-18
  -19.597500        5.33830521E-18
  -19.455000        5.34965454E-18
  -19.312500        5.35801485E-18
  -19.170000        5.36255401E-18
  -19.027500        5.36323602E-18
  -18.885000        5.36083885E-18
  -18.742500        5.35680055E-18
  -18.600000        5.35292769E-18
  -18.457500        5.35103180E-18
  -18.315001        5.35255464E-18
  -18.172501        5.35827335E-18
  -18.030001        5.36812921E-18
  -17.887501        5.38122885E-18
  -17.745001        5.39600809E-18
  -17.602501        5.41053255E-18
  -17.459999        5.42287491E-18
  -17.317499        5.43149579E-18
  -17.174999        5.43554608E-18
  -17.032499        5.43504109E-18
  -16.889999        5.43085886E-18
  -16.747499        5.42456567E-18
  -16.605000        5.41810994E-18
  -16.462500        5.41343265E-18
  -16.320000        5.41208641E-18
  -16.177500        5.41493233E-18
  -16.035000        5.42197660E-18
  -15.892500        5.43238129E-18
  -15.750000        5.44464217E-18
  -15.607500        5.45689561E-18
  -15.465000        5.46729741E-18
  -15.322500        5.47439338E-18
  -15.180000        5.47741010E-18
  -15.037500        5.47640508E-18
  -14.895000        5.47225346E-18
  -14.752500        5.46646692E-18
  -14.610000        5.46088221E-18
  -14.467500        5.45728356E-18
  -14.325000        5.45703499E-18
  -14.182500        5.46079494E-18
  -14.040000        5.46837977E-18
  -13.897500        5.47879274E-18
  -13.755000        5.49042455E-18
  -13.612500        5.50137601E-18
  -13.470000        5.50984096E-18
  -13.327500        5.51446904E-18
  -13.185000        5.51463737E-18
  -13.042500        5.51057922E-18
  -12.900000        5.50334056E-18
  -12.757500        5.49458031E-18
  -12.615000        5.48624770E-18
  -12.472500        5.48020680E-18
  -12.330000        5.47787539E-18
  -12.187500        5.47995327E-18
  -12.045000        5.48629568E-18
  -11.902500        5.49595715E-18
  -11.760000        5.50739416E-18
  -11.617500        5.51878899E-18
  -11.475000        5.52842688E-18
  -11.332500        5.53504846E-18
  -11.190000        5.53810241E-18
  -11.047500        5.53785426E-18
  -10.905000        5.53531688E-18
  -10.762500        5.53203504E-18
  -10.620000        5.52975533E-18
  -10.477500        5.53005684E-18
  -10.335000        5.53401283E-18
  -10.192500        5.54195211E-18
  -10.050000        5.55337051E-18
  -9.9075003        5.56700369E-18
  -9.7650003        5.58105584E-18
  -9.6225004        5.59353675E-18
  -9.4799995        5.60264814E-18
  -9.3374996        5.60713188E-18
  -9.1949997        5.60651935E-18
  -9.0524998        5.60122622E-18
  -8.9099998        5.59247010E-18
  -8.7674999        5.58203811E-18
  -8.6250000        5.57193327E-18
  -8.4825001        5.56399689E-18
  -8.3400002        5.55955700E-18
  -8.1975002        5.55919345E-18
  -8.0550003        5.56265189E-18
  -7.9124999        5.56892482E-18
  -7.7700000        5.57647863E-18
  -7.6275001        5.58358329E-18
  -7.4850001        5.58867169E-18
  -7.3425002        5.59066561E-18
  -7.1999998        5.58920150E-18
  -7.0574999        5.58470370E-18
  -6.9150000        5.57830298E-18
  -6.7725000        5.57160282E-18
  -6.6300001        5.56634898E-18
  -6.4875002        5.56406472E-18
  -6.3449998        5.56573438E-18
  -6.2024999        5.57159454E-18
  -6.0599999        5.58108148E-18
  -5.9175000        5.59294159E-18
  -5.7750001        5.60548372E-18
  -5.6325002        5.61691701E-18
  -5.4899998        5.62570539E-18
  -5.3474998        5.63086948E-18
  -5.2049999        5.63217022E-18
  -5.0625000        5.63014983E-18
  -4.9200001        5.62601145E-18
  -4.7775002        5.62136641E-18
  -4.6350002        5.61790384E-18
  -4.4924998        5.61703819E-18
  -4.3499999        5.61961569E-18
  -4.2075000        5.62573269E-18
  -4.0650001        5.63471504E-18
  -3.9224999        5.64525043E-18
  -3.7800000        5.65566835E-18
  -3.6375000        5.66428385E-18
  -3.4949999        5.66975689E-18
  -3.3525000        5.67137651E-18
  -3.2100000        5.66921674E-18
  -3.0675001        5.66413165E-18
  -2.9250000        5.65759031E-18
  -2.7825000        5.65138935E-18
  -2.6400001        5.64729522E-18
  -2.4974999        5.64669055E-18
  -2.3550000        5.65029623E-18
  -2.2125001        5.65801796E-18
  -2.0699999        5.66895122E-18
  -1.9275000        5.68155166E-18
  -1.7850000        5.69393207E-18
  -1.6425000        5.70423047E-18
  -1.5000000        5.71098399E-18
  -1.3575000        5.71341631E-18
  -1.2150000        5.71159486E-18
  -1.0725000        5.70641133E-18
 -0.93000001        5.69940057E-18
 -0.78750002        5.69242661E-18
 -0.64499998        5.68730760E-18
 -0.50250000        5.68545389E-18
 -0.36000001        5.68759008E-18
 -0.21750000        5.69361899E-18
 -7.50000030E-02    5.70264601E-18
  6.75000027E-02    5.71316237E-18
  0.20999999        5.72334703E-18
  0.35249999        5.73143024E-18
  0.49500000        5.73605087E-18
  0.63749999        5.73652981E-18
  0.77999997        5.73301346E-18
  0.92250001        5.72644854E-18
   1.0650001        5.71839305E-18
   1.2075000        5.71070523E-18
   1.3500000        5.70516312E-18
   1.4924999        5.70311006E-18
   1.6350000        5.70518463E-18
   1.7775000        5.71120112E-18
   1.9200000        5.72019671E-18
   2.0625000        5.73063573E-18
   2.2049999        5.74072320E-18
   2.3475001        5.74876877E-18
   2.4900000        5.75352134E-18
   2.6324999        5.75441718E-18
   2.7750001        5.75168872E-18
   2.9175000        5.74631618E-18
   3.0599999        5.73983191E-18
   3.2025001        5.73401063E-18
   3.3450000        5.73051207E-18
   3.4875000        5.73054185E-18
   3.6300001        5.73460248E-18
   3.7725000        5.74239245E-18
   3.9150000        5.75286538E-18
   4.0574999        5.76445129E-18
   4.1999998        5.77538207E-18
   4.3425002        5.78405588E-18
   4.4850001        5.78936473E-18
   4.6275001        5.79091445E-18
   4.7700000        5.78909548E-18
   4.9124999        5.78499928E-18
   5.0549998        5.78019088E-18
   5.1975002        5.77638502E-18
   5.3400002        5.77509917E-18
   5.4825001        5.77733794E-18
   5.6250000        5.78337884E-18
   5.7674999        5.79270116E-18
   5.9099998        5.80407365E-18
   6.0524998        5.81579232E-18
   6.1950002        5.82601752E-18
   6.3375001        5.83314533E-18
   6.4800000        5.83613890E-18
   6.6224999        5.83474427E-18
   6.7649999        5.82954668E-18
   6.9074998        5.82186507E-18
   7.0500002        5.81348862E-18
   7.1925001        5.80633103E-18
   7.3350000        5.80206112E-18
   7.4775000        5.80178815E-18
   7.6199999        5.80585416E-18
   7.7624998        5.81378475E-18
   7.9050002        5.82438756E-18
   8.0474997        5.83599331E-18
   8.1899996        5.84678885E-18
   8.3325005        5.85517356E-18
   8.4750004        5.86007709E-18
   8.6175003        5.86116649E-18
   8.7600002        5.85890539E-18
   8.9025002        5.85444606E-18
   9.0450001        5.84937710E-18
   9.1875000        5.84538223E-18
   9.3299999        5.84388172E-18
   9.4724998        5.84573502E-18
   9.6149998        5.85106124E-18
   9.7574997        5.85921682E-18
   9.8999996        5.86893289E-18
   10.042500        5.87857285E-18
   10.185000        5.88646539E-18
   10.327500        5.89124402E-18
   10.470000        5.89212331E-18
   10.612500        5.88906522E-18
   10.755000        5.88279933E-18
   10.897500        5.87468551E-18
   11.040000        5.86645672E-18
   11.182500        5.85986988E-18
   11.325000        5.85635767E-18
   11.467500        5.85673735E-18
   11.610000        5.86104655E-18
   11.752500        5.86854453E-18
   11.895000        5.87787554E-18
   12.037500        5.88735668E-18
   12.180000        5.89533194E-18
   12.322500        5.90051506E-18
   12.465000        5.90225255E-18
   12.607500        5.90065319E-18
   12.750000        5.89656279E-18
   12.892500        5.89139291E-18
   13.035000        5.88683556E-18
   13.177500        5.88452193E-18
   13.320000        5.88568247E-18
   13.462500        5.89088667E-18
   13.605000        5.89990542E-18
   13.747500        5.91173328E-18
   13.890000        5.92477461E-18
   14.032500        5.93715089E-18
   14.175000        5.94707871E-18
   14.317500        5.95322962E-18
   14.460000        5.95500020E-18
   14.602500        5.95263488E-18
   14.745000        5.94717466E-18
   14.887500        5.94024702E-18
   15.030000        5.93374373E-18
   15.172500        5.92944777E-18
   15.315000        5.92869255E-18
   15.457500        5.93210260E-18
   15.600000        5.93948023E-18
   15.742500        5.94984480E-18
   15.885000        5.96162468E-18
   16.027500        5.97296656E-18
   16.170000        5.98210071E-18
   16.312500        5.98769741E-18
   16.455000        5.98913588E-18
   16.597500        5.98663076E-18
   16.740000        5.98118833E-18
   16.882500        5.97439759E-18
   17.025000        5.96809943E-18
   17.167500        5.96401109E-18
   17.309999        5.96337499E-18
   17.452499        5.96671804E-18
   17.594999        5.97375115E-18
   17.737499        5.98344074E-18
   17.879999        5.99421683E-18
   18.022499        6.00429231E-18
   18.165001        6.01201280E-18
   18.307501        6.01618592E-18
   18.450001        6.01631662E-18
   18.592501        6.01271177E-18
   18.735001        6.00642354E-18
   18.877501        5.99904054E-18
   19.020000        5.99237181E-18
   19.162500        5.98807543E-18
   19.305000        5.98732270E-18
   19.447500        5.99055987E-18
   19.590000        5.99742464E-18
   19.732500        6.00682927E-18
   19.875000        6.01719550E-18
   20.017500        6.02678211E-18
   20.160000        6.03404103E-18
   20.302500        6.03792506E-18
   20.445000        6.03808884E-18
   20.587500        6.03495052E-18
   20.730000        6.02960279E-18
   20.872499        6.02359374E-18
   21.014999        6.01861370E-18
   21.157499        6.01615491E-18
   21.299999        6.01720294E-18
   21.442499        6.02202706E-18
   21.584999        6.03011689E-18
   21.727501        6.04027921E-18
   21.870001        6.05088119E-18
   22.012501        6.06018738E-18
   22.155001        6.06672418E-18
   22.297501        6.06958167E-18
   22.440001        6.06859609E-18
   22.582500        6.06437871E-18
   22.725000        6.05818437E-18
   22.867500        6.05165460E-18
   23.010000        6.04648555E-18
   23.152500        6.04409748E-18
   23.295000        6.04534900E-18
   23.437500        6.05036999E-18
   23.580000        6.05852971E-18
   23.722500        6.06855225E-18
   23.865000        6.07876586E-18
   24.007500        6.08743347E-18
   24.150000        6.09310710E-18
   24.292500        6.09492649E-18
   24.434999        6.09280187E-18
   24.577499        6.08743595E-18
   24.719999        6.08017951E-18
   24.862499        6.07275639E-18
   25.004999        6.06690657E-18
   25.147499        6.06404329E-18
   25.290001        6.06497635E-18
   25.432501        6.06976324E-18
   25.575001        6.07771575E-18
   25.717501        6.08754556E-18
   25.860001        6.09762641E-18
   26.002501        6.10631552E-18
   26.145000        6.11228032E-18
   26.287500        6.11476517E-18
   26.430000        6.11374691E-18
   26.572500        6.10994271E-18
   26.715000        6.10466985E-18
   26.857500        6.09957276E-18
   27.000000        6.09627893E-18
   27.142500        6.09605435E-18
   27.285000        6.09953595E-18
   27.427500        6.10659594E-18
   27.570000        6.11636908E-18
   27.712500        6.12743841E-18
   27.855000        6.13812227E-18
   27.997499        6.14681842E-18
   28.139999        6.15231917E-18
   28.282499        6.15404633E-18
   28.424999        6.15215994E-18
   28.567499        6.14752608E-18
   28.709999        6.14154680E-18
   28.852501        6.13588434E-18
   28.995001        6.13212811E-18
   29.137501        6.13147257E-18
   29.280001        6.13446489E-18
   29.422501        6.14088671E-18
   29.565001        6.14979007E-18
   29.707500        6.15969514E-18
   29.850000        6.16889711E-18
   29.992500        6.17582351E-18
   30.135000        6.17936260E-18
   30.277500        6.17908798E-18
   30.420000        6.17533878E-18
   30.562500        6.16914403E-18
   30.705000        6.16201125E-18
   30.847500        6.15562293E-18
   30.990000        6.15150357E-18
   31.132500        6.15072106E-18
   31.275000        6.15367037E-18
   31.417500        6.15999127E-18
   31.559999        6.16862828E-18
   31.702499        6.17803705E-18
   31.844999        6.18649001E-18
   31.987499        6.19243619E-18
   32.130001        6.19482592E-18
   32.272499        6.19333906E-18
   32.415001        6.18846242E-18
   32.557499        6.18139250E-18
   32.700001        6.17379402E-18
   32.842499        6.16746113E-18
   32.985001        6.16395802E-18
   33.127499        6.16431288E-18
   33.270000        6.16881936E-18
   33.412498        6.17698529E-18
   33.555000        6.18762779E-18
   33.697498        6.19909624E-18
   33.840000        6.20958406E-18
   33.982498        6.21746875E-18
   34.125000        6.22162492E-18
   34.267502        6.22164394E-18
   34.410000        6.21791915E-18
   34.552502        6.21156805E-18
   34.695000        6.20420697E-18
   34.837502        6.19762055E-18
   34.980000        6.19339572E-18
   35.122501        6.19260370E-18
   35.264999        6.19559395E-18
   35.407501        6.20194215E-18
   35.549999        6.21055931E-18
   35.692501        6.21993126E-18
   35.834999        6.22843220E-18
   35.977501        6.23464929E-18
   36.119999        6.23765981E-18
   36.262501        6.23720817E-18
   36.404999        6.23375469E-18
   36.547501        6.22838422E-18
   36.689999        6.22259809E-18
   36.832500        6.21801179E-18
   36.974998        6.21602697E-18
   37.117500        6.21753575E-18
   37.259998        6.22273127E-18
   37.402500        6.23106098E-18
   37.544998        6.24134325E-18
   37.687500        6.25201553E-18
   37.830002        6.26146855E-18
   37.972500        6.26837758E-18
   38.115002        6.27197250E-18
   38.257500        6.27218344E-18
   38.400002        6.26963820E-18
   38.542500        6.26552546E-18
   38.685001        6.26134489E-18
   38.827499        6.25860527E-18
   38.970001        6.25851841E-18
   39.112499        6.26174648E-18
   39.255001        6.26825805E-18
   39.397499        6.27731154E-18
   39.540001        6.28759050E-18
   39.682499        6.29745918E-18
   39.825001        6.30529796E-18
   39.967499        6.30984166E-18
   40.110001        6.31045460E-18
   40.252499        6.30726665E-18
   40.395000        6.30114840E-18
   40.537498        6.29353297E-18
   40.680000        6.28611647E-18
   40.822498        6.28051521E-18
   40.965000        6.27794516E-18
   41.107498        6.27899113E-18
   41.250000        6.28349389E-18
   41.392502        6.29058986E-18
   41.535000        6.29887945E-18
   41.677502        6.30669589E-18
   41.820000        6.31243694E-18
   41.962502        6.31488498E-18
   42.105000        6.31346471E-18
   42.247501        6.30837672E-18
   42.389999        6.30057103E-18
   42.532501        6.29157172E-18
   42.674999        6.28316674E-18
   42.817501        6.27705057E-18
   42.959999        6.27448424E-18
   43.102501        6.27605050E-18
   43.244999        6.28156160E-18
   43.387501        6.29011712E-18
   43.529999        6.30030675E-18
   43.672501        6.31049637E-18
   43.814999        6.31915158E-18
   43.957500        6.32512465E-18
   44.099998        6.32786675E-18
   44.242500        6.32752430E-18
   44.384998        6.32490007E-18
   44.527500        6.32128653E-18
   44.669998        6.31819742E-18
   44.812500        6.31704640E-18
   44.955002        6.31884056E-18
   45.097500        6.32395171E-18
   45.240002        6.33202664E-18
   45.382500        6.34205579E-18
   45.525002        6.35258539E-18
   45.667500        6.36202187E-18
   45.810001        6.36896315E-18
   45.952499        6.37247619E-18
   46.095001        6.37227643E-18
   46.237499        6.36876959E-18
   46.380001        6.36296361E-18
   46.522499        6.35626634E-18
   46.665001        6.35022172E-18
   46.807499        6.34621155E-18
   46.950001        6.34519453E-18
   47.092499        6.34751684E-18
   47.235001        6.35283892E-18
   47.377499        6.36019835E-18
   47.520000        6.36820918E-18
   47.662498        6.37535188E-18
   47.805000        6.38030173E-18
   47.947498        6.38221955E-18
   48.090000        6.38093659E-18
   48.232498        6.37698805E-18
   48.375000        6.37150218E-18
   48.517502        6.36595759E-18
   48.660000        6.36188207E-18
   48.802502        6.36054328E-18
   48.945000        6.36269850E-18
   49.087502        6.36844410E-18
   49.230000        6.37718616E-18
   49.372501        6.38773974E-18
   49.514999        6.39853403E-18
   49.657501        6.40789937E-18
   49.799999        6.41438571E-18
   49.942501        6.41705006E-18
   50.084999        6.41565336E-18
   50.227501        6.41072171E-18
   50.369999        6.40344542E-18
   50.512501        6.39544245E-18
   50.654999        6.38843126E-18
   50.797501        6.38388260E-18
   50.939999        6.38273819E-18
   51.082500        6.38524331E-18
   51.224998        6.39092645E-18
   51.367500        6.39871684E-18
   51.509998        6.40717311E-18
   51.652500        6.41477366E-18
   51.794998        6.42020947E-18
   51.937500        6.42263890E-18
   52.080002        6.42185308E-18
   52.222500        6.41832722E-18
   52.365002        6.41313253E-18
   52.507500        6.40772566E-18
   52.650002        6.40365511E-18
   52.792500        6.40223194E-18
   52.935001        6.40424737E-18
   53.077499        6.40980892E-18
   53.220001        6.41831440E-18
   53.362499        6.42858757E-18
   53.505001        6.43913288E-18
   53.647499        6.44844570E-18
   53.790001        6.45531006E-18
   53.932499        6.45902368E-18
   54.075001        6.45951420E-18
   54.217499        6.45733044E-18
   54.360001        6.45351507E-18
   54.502499        6.44939075E-18
   54.645000        6.44629131E-18
   54.787498        6.44528545E-18
   54.930000        6.44694933E-18
   55.072498        6.45123123E-18
   55.215000        6.45744501E-18
   55.357498        6.46440946E-18
   55.500000        6.47070099E-18
   55.642502        6.47497090E-18
   55.785000        6.47625220E-18
   55.927502        6.47418053E-18
   56.070000        6.46908137E-18
   56.212502        6.46190682E-18
   56.355000        6.45404199E-18
   56.497501        6.44702832E-18
   56.639999        6.44226542E-18
   56.782501        6.44075002E-18
   56.924999        6.44289118E-18
   57.067501        6.44843246E-18
   57.209999        6.45649623E-18
   57.352501        6.46573749E-18
   57.494999        6.47459825E-18
   57.637501        6.48160944E-18
   57.779999        6.48569240E-18
   57.922501        6.48638558E-18
   58.064999        6.48395408E-18
   58.207500        6.47933469E-18
   58.349998        6.47393775E-18
   58.492500        6.46934317E-18
   58.634998        6.46696420E-18
   58.777500        6.46775333E-18
   58.919998        6.47201745E-18
   59.062500        6.47936488E-18
   59.205002        6.48879433E-18
   59.347500        6.49889462E-18
   59.490002        6.50811065E-18
   59.632500        6.51503705E-18
   59.775002        6.51868160E-18
   59.917500        6.51866175E-18
   60.060001        6.51529140E-18
   60.202499        6.50953629E-18
   60.345001        6.50283737E-18
   60.487499        6.49682336E-18
   60.630001        6.49297779E-18
   60.772499        6.49232680E-18
   60.915001        6.49522400E-18
   61.057499        6.50128599E-18
   61.200001        6.50948832E-18
   61.342499        6.51839209E-18
   61.485001        6.52645669E-18
   61.627499        6.53235159E-18
   61.770000        6.53521984E-18
   61.912498        6.53483479E-18
   62.055000        6.53163773E-18
   62.197498        6.52665190E-18
   62.340000        6.52128805E-18
   62.482498        6.51707605E-18
   62.625000        6.51535965E-18
   62.767502        6.51701690E-18
   62.910000        6.52225751E-18
   63.052502        6.53055537E-18
   63.195000        6.54073465E-18
   63.337502        6.55120345E-18
   63.480000        6.56028176E-18
   63.622501        6.56655344E-18
   63.764999        6.56915492E-18
   63.907501        6.56794145E-18
   64.050003        6.56349535E-18
   64.192497        6.55698916E-18
   64.334999        6.54993704E-18
   64.477501        6.54389696E-18
   64.620003        6.54017176E-18
   64.762497        6.53956543E-18
   64.904999        6.54223268E-18
   65.047501        6.54764368E-18
   65.190002        6.55468423E-18
   65.332497        6.56186829E-18
   65.474998        6.56764656E-18
   65.617500        6.57073567E-18
   65.760002        6.57040810E-18
   65.902496        6.56666718E-18
   66.044998        6.56026190E-18
   66.187500        6.55253438E-18
   66.330002        6.54513773E-18
   66.472504        6.53969034E-18
   66.614998        6.53745116E-18
   66.757500        6.53907409E-18
   66.900002        6.54449419E-18
   67.042503        6.55295542E-18
   67.184998        6.56315910E-18
   67.327499        6.57350672E-18
   67.470001        6.58239271E-18
   67.612503        6.58849978E-18
   67.754997        6.59105122E-18
   67.897499        6.58996472E-18
   68.040001        6.58588217E-18
   68.182503        6.58004352E-18
   68.324997        6.57403570E-18
   68.467499        6.56945602E-18
   68.610001        6.56757377E-18
   68.752502        6.56906600E-18
   68.894997        6.57388516E-18
   69.037498        6.58129504E-18
   69.180000        6.59004661E-18
   69.322502        6.59864888E-18
   69.464996        6.60567536E-18
   69.607498        6.61003791E-18
   69.750000        6.61118769E-18
   69.892502        6.60920825E-18
   70.035004        6.60480103E-18
   70.177498        6.59915552E-18
   70.320000        6.59372881E-18
   70.462502        6.58996224E-18
   70.605003        6.58898699E-18
   70.747498        6.59138416E-18
   70.889999        6.59704663E-18
   71.032501        6.60519229E-18
   71.175003        6.61452743E-18
   71.317497        6.62352426E-18
   71.459999        6.63074596E-18
   71.602501        6.63514408E-18
   71.745003        6.63625706E-18
   71.887497        6.63427968E-18
   72.029999        6.62999819E-18
   72.172501        6.62461697E-18
   72.315002        6.61951823E-18
   72.457497        6.61600023E-18
   72.599998        6.61503491E-18
   72.742500        6.61708384E-18
   72.885002        6.62199770E-18
   73.027496        6.62903287E-18
   73.169998        6.63698952E-18
   73.312500        6.64444697E-18
   73.455002        6.65006601E-18
   73.597504        6.65288090E-18
   73.739998        6.65251488E-18
   73.882500        6.64925909E-18
   74.025002        6.64400567E-18
   74.167503        6.63804252E-18
   74.309998        6.63277256E-18
   74.452499        6.62942454E-18
   74.595001        6.62881119E-18
   74.737503        6.63118768E-18
   74.879997        6.63621652E-18
   75.022499        6.64303704E-18
   75.165001        6.65043245E-18
   75.307503        6.65705238E-18
   75.449997        6.66167342E-18
   75.592499        6.66344896E-18
   75.735001        6.66209363E-18
   75.877502        6.65797137E-18
   76.019997        6.65204090E-18
   76.162498        6.64566706E-18
   76.305000        6.64033506E-18
   76.447502        6.63733198E-18
   76.589996        6.63747342E-18
   76.732498        6.64093972E-18
   76.875000        6.64725608E-18
   77.017502        6.65541290E-18
   77.160004        6.66408382E-18
   77.302498        6.67189117E-18
   77.445000        6.67766654E-18
   77.587502        6.68066466E-18
   77.730003        6.68069609E-18
   77.872498        6.67816285E-18
   78.014999        6.67399221E-18
   78.157501        6.66946381E-18
   78.300003        6.66596442E-18
   78.442497        6.66470049E-18
   78.584999        6.66643136E-18
   78.727501        6.67129519E-18
   78.870003        6.67876628E-18
   79.012497        6.68776807E-18
   79.154999        6.69690594E-18
   79.297501        6.70477325E-18
   79.440002        6.71024381E-18
   79.582497        6.71269558E-18
   79.724998        6.71211034E-18
   79.867500        6.70905722E-18
   80.010002        6.70456356E-18
   80.152496        6.69990571E-18
   80.294998        6.69637241E-18
   80.437500        6.69501707E-18
   80.580002        6.69645264E-18
   80.722504        6.70071841E-18
   80.864998        6.70725355E-18
   81.007500        6.71498893E-18
   81.150002        6.72256012E-18
   81.292503        6.72859316E-18
   81.434998        6.73200280E-18
   81.577499        6.73223317E-18
   81.720001        6.72936988E-18
   81.862503        6.72411522E-18
   82.004997        6.71761606E-18
   82.147499        6.71121285E-18
   82.290001        6.70615919E-18
   82.432503        6.70337863E-18
   82.574997        6.70330128E-18
   82.717499        6.70579358E-18
   82.860001        6.71019418E-18
   83.002502        6.71544264E-18
   83.144997        6.72027669E-18
   83.287498        6.72347912E-18
   83.430000        6.72413217E-18
   83.572502        6.72182351E-18
   83.714996        6.71676200E-18
   83.857498        6.70975867E-18
   84.000000        6.70207168E-18
   84.142502        6.69513908E-18
   84.285004        6.69027360E-18
   84.427498        6.68838391E-18
   84.570000        6.68979425E-18
   84.712502        6.69419568E-18
   84.855003        6.70072999E-18
   84.997498        6.70817669E-18
   85.139999        6.71519407E-18
   85.282501        6.72056827E-18
   85.425003        6.72342742E-18
   85.567497        6.72340177E-18
   85.709999        6.72069234E-18
   85.852501        6.71604690E-18
   85.995003        6.71062928E-18
   86.137497        6.70579358E-18
   86.279999        6.70281077E-18
   86.422501        6.70258826E-18
   86.565002        6.70546974E-18
   86.707497        6.71114999E-18
   86.849998        6.71874268E-18
   86.992500        6.72697850E-18
   87.135002        6.73447938E-18
   87.277496        6.74004713E-18
   87.419998        6.74289346E-18
   87.562500        6.74277972E-18
   87.705002        6.74003679E-18
   87.847504        6.73548936E-18
   87.989998        6.73029881E-18
   88.132500        6.72575386E-18
   88.275002        6.72303823E-18
   88.417503        6.72300721E-18
   88.559998        6.72601856E-18
   88.702499        6.73184522E-18
   88.845001        6.73971005E-18
   88.987503        6.74844343E-18
   89.129997        6.75673384E-18
   89.272499        6.76342077E-18
   89.415001        6.76775230E-18
   89.557503        6.76954687E-18
   89.699997        6.76921559E-18
   89.842499        6.76765346E-18
   89.985001        6.76603094E-18
   90.127502        6.76553794E-18
   90.269997        6.76714267E-18
   90.412498        6.77139810E-18
   90.555000        6.77833691E-18
   90.697502        6.78744871E-18
   90.839996        6.79775745E-18
   90.982498        6.80798223E-18
   91.125000        6.81677020E-18
   91.267502        6.82295792E-18
   91.410004        6.82581666E-18
   91.552498        6.82522316E-18
   91.695000        6.82170433E-18
   91.837502        6.81633510E-18
   91.980003        6.81051671E-18