  -30.000000        9.84044911E-18
  -29.857500        9.85751136E-18
  -29.715000        9.88334669E-18
  -29.572500        9.90642503E-18
  -29.430000        9.91863835E-18
  -29.287500        9.91982867E-18
  -29.145000        9.91749519E-18
  -29.002501        9.92190241E-18
  -28.860001        9.93955858E-18
  -28.717501        9.96902606E-18
  -28.575001        1.00015789E-17
  -28.432501        1.00263141E-17
  -28.290001        1.00366365E-17
  -28.147499        1.00342054E-17
  -28.004999        1.00279643E-17
  -27.862499        1.00288411E-17
  -27.719999        1.00432829E-17
  -27.577499        1.00695062E-17
  -27.434999        1.00986866E-17
  -27.292500        1.01203372E-17
  -27.150000        1.01286306E-17
  -27.007500        1.01258504E-17
  -26.865000        1.01209279E-17
  -26.722500        1.01239669E-17
  -26.580000        1.01401093E-17
  -26.437500        1.01664195E-17
  -26.295000        1.01936916E-17
  -26.152500        1.02120459E-17
  -26.010000        1.02169222E-17
  -25.867500        1.02118424E-17
  -25.725000        1.02062772E-17
  -25.582500        1.02099110E-17
  -25.440001        1.02267929E-17
  -25.297501        1.02528938E-17
  -25.155001        1.02785579E-17
  -25.012501        1.02943454E-17
  -24.870001        1.02967335E-17
  -24.727501        1.02902170E-17
  -24.584999        1.02845624E-17
  -24.442499        1.02888761E-17
  -24.299999        1.03060955E-17
  -24.157499        1.03312484E-17
  -24.014999        1.03545195E-17
  -23.872499        1.03672713E-17
  -23.730000        1.03673408E-17
  -23.587500        1.03604041E-17
  -23.445000        1.03565428E-17
  -23.302500        1.03641016E-17
  -23.160000        1.03845578E-17
  -23.017500        1.04115181E-17
  -22.875000        1.04344831E-17
  -22.732500        1.04451231E-17
  -22.590000        1.04422817E-17
  -22.447500        1.04326715E-17
  -22.305000        1.04268374E-17
  -22.162500        1.04328097E-17
  -22.020000        1.04512798E-17
  -21.877501        1.04752126E-17
  -21.735001        1.04941426E-17
  -21.592501        1.05005583E-17
  -21.450001        1.04945000E-17
  -21.307501        1.04835911E-17
  -21.165001        1.04784444E-17
  -21.022499        1.04862050E-17
  -20.879999        1.05061392E-17
  -20.737499        1.05299339E-17
  -20.594999        1.05465859E-17
  -20.452499        1.05489492E-17
  -20.309999        1.05380320E-17
  -20.167500        1.05224471E-17
  -20.025000        1.05133456E-17
  -19.882500        1.05178530E-17
  -19.740000        1.05349491E-17
  -19.597500        1.05562457E-17
  -19.455000        1.05711813E-17
  -19.312500        1.05734883E-17
  -19.170000        1.05650370E-17
  -19.027500        1.05547204E-17
  -18.885000        1.05530561E-17
  -18.742500        1.05657351E-17
  -18.600000        1.05900212E-17
  -18.457500        1.06161692E-17
  -18.315001        1.06330362E-17
  -18.172501        1.06345441E-17
  -18.030001        1.06231406E-17
  -17.887501        1.06082026E-17
  -17.745001        1.06003799E-17
  -17.602501        1.06052752E-17
  -17.459999        1.06202505E-17
  -17.317499        1.06362498E-17
  -17.174999        1.06435042E-17
  -17.032499        1.06376444E-17
  -16.889999        1.06225236E-17
  -16.747499        1.06080462E-17
  -16.605000        1.06043107E-17
  -16.462500        1.06156001E-17
  -16.320000        1.06378231E-17
  -16.177500        1.06609660E-17
  -16.035000        1.06750322E-17
  -15.892500        1.06759255E-17
  -15.750000        1.06677414E-17
  -15.607500        1.06601040E-17
  -15.465000        1.06622208E-17
  -15.322500        1.06772333E-17
  -15.180000        1.07003000E-17
  -15.037500        1.07215305E-17
  -14.895000        1.07319877E-17
  -14.752500        1.07290983E-17
  -14.610000        1.07181953E-17
  -14.467500        1.07092625E-17
  -14.325000        1.07108689E-17
  -14.182500        1.07249682E-17
  -14.040000        1.07457180E-17
  -13.897500        1.07630417E-17
  -13.755000        1.07687625E-17
  -13.612500        1.07615941E-17
  -13.470000        1.07479696E-17
  -13.327500        1.07381899E-17
  -13.185000        1.07402388E-17
  -13.042500        1.07549974E-17
  -12.900000        1.07757588E-17
  -12.757500        1.07923355E-17
  -12.615000        1.07972679E-17
  -12.472500        1.07903519E-17
  -12.330000        1.07787565E-17
  -12.187500        1.07726271E-17
  -12.045000        1.07788566E-17
  -11.902500        1.07968080E-17
  -11.760000        1.08185902E-17
  -11.617500        1.08337739E-17
  -11.475000        1.08356872E-17
  -11.332500        1.08255112E-17
  -11.190000        1.08116617E-17
  -11.047500        1.08048193E-17
  -10.905000        1.08115716E-17
  -10.762500        1.08304958E-17
  -10.620000        1.08530563E-17
  -10.477500        1.08687603E-17
  -10.335000        1.08714942E-17
  -10.192500        1.08631918E-17
  -10.050000        1.08526336E-17
  -9.9075003        1.08500785E-17
  -9.7650003        1.08609716E-17
  -9.6225004        1.08825403E-17
  -9.4799995        1.09053374E-17
  -9.3374996        1.09188561E-17
  -9.1949997        1.09178345E-17
  -9.0524998        1.09054706E-17
  -8.9099998        1.08915963E-17
  -8.7674999        1.08868897E-17
  -8.6250000        1.08965710E-17
  -8.4825001        1.09173655E-17
  -8.3400002        1.09395240E-17
  -8.1975002        1.09526960E-17
  -8.0550003        1.09521087E-17
  -7.9124999        1.09413570E-17
  -7.7700000        1.09301297E-17
  -7.6275001        1.09282702E-17
  -7.4850001        1.09397539E-17
  -7.3425002        1.09602176E-17
  -7.1999998        1.09795331E-17
  -7.0574999        1.09878901E-17
  -6.9150000        1.09817209E-17
  -6.7725000        1.09659210E-17
  -6.6300001        1.09510243E-17
  -6.4875002        1.09470331E-17
  -6.3449998        1.09575937E-17
  -6.2024999        1.09779920E-17
  -6.0599999        1.09981438E-17
  -5.9175000        1.10087292E-17
  -5.7750001        1.10067895E-17
  -5.6325002        1.09973985E-17
  -5.4899998        1.09904535E-17
  -5.3474998        1.09945431E-17
  -5.2049999        1.10116227E-17
  -5.0625000        1.10357276E-17
  -4.9200001        1.10564799E-17
  -4.7775002        1.10652918E-17
  -4.6350002        1.10604892E-17
  -4.4924998        1.10482949E-17
  -4.3499999        1.10390619E-17
  -4.2075000        1.10410662E-17
  -4.0650001        1.10555857E-17
  -3.9224999        1.10762363E-17
  -3.7800000        1.10929263E-17
  -3.6375000        1.10980308E-17
  -3.4949999        1.10910155E-17
  -3.3525000        1.10787368E-17
  -3.2100000        1.10712326E-17
  -3.0675001        1.10755894E-17
  -2.9250000        1.10916036E-17
  -2.7825000        1.11118877E-17
  -2.6400001        1.11263510E-17
  -2.4974999        1.11283511E-17
  -2.3550000        1.11187624E-17
  -2.2125001        1.11055003E-17
  -2.0699999        1.10987728E-17
  -1.9275000        1.11049221E-17
  -1.7850000        1.11225906E-17
  -1.6425000        1.11435382E-17
  -1.5000000        1.11576151E-17
  -1.3575000        1.11588989E-17
  -1.2150000        1.11492639E-17
  -1.0725000        1.11372259E-17
 -0.93000001        1.11327534E-17
 -0.78750002        1.11411823E-17
 -0.64499998        1.11599345E-17
 -0.50250000        1.11800325E-17
 -0.36000001        1.11915287E-17
 -0.21750000        1.11895650E-17
 -7.50000030E-02    1.11773938E-17
  6.75000027E-02    1.11645088E-17
  0.20999999        1.11609875E-17
  0.35249999        1.11714357E-17
  0.49500000        1.11921855E-17
  0.63749999        1.12134490E-17
  0.77999997        1.12251544E-17
  0.92250001        1.12229558E-17
   1.0650001        1.12108136E-17
   1.2075000        1.11985763E-17
   1.3500000        1.11960352E-17
   1.4924999        1.12070077E-17
   1.6350000        1.12270338E-17
   1.7775000        1.12460771E-17
   1.9200000        1.12546037E-17
   2.0625000        1.12493941E-17
   2.2049999        1.12355686E-17
   2.3475001        1.12236101E-17
   2.4900000        1.12231303E-17
   2.6324999        1.12371361E-17
   2.7750001        1.12602145E-17
   2.9175000        1.12817311E-17
   3.0599999        1.12921230E-17
   3.2025001        1.12885181E-17
   3.3450000        1.12763222E-17
   3.4875000        1.12658467E-17
   3.6300001        1.12660271E-17
   3.7725000        1.12790179E-17
   3.9150000        1.12989141E-17
   4.0574999        1.13153527E-17
   4.1999998        1.13198161E-17
   4.3425002        1.13108296E-17
   4.4850001        1.12949254E-17
   4.6275001        1.12827957E-17
   4.7700000        1.12829553E-17
   4.9124999        1.12967138E-17
   5.0549998        1.13174703E-17
   5.1975002        1.13347302E-17
   5.3400002        1.13404088E-17
   5.4825001        1.13336243E-17
   5.6250000        1.13211098E-17
   5.7674999        1.13130374E-17
   5.9099998        1.13168035E-17
   6.0524998        1.13325373E-17
   6.1950002        1.13530481E-17
   6.3375001        1.13682194E-17
   6.4800000        1.13711700E-17
   6.6224999        1.13624499E-17
   6.7649999        1.13497295E-17
   6.9074998        1.13431765E-17
   7.0500002        1.13493266E-17
   7.1925001        1.13671524E-17
   7.3350000        1.13887054E-17
   7.4775000        1.14039313E-17
   7.6199999        1.14067388E-17
   7.7624998        1.13986332E-17
   7.9050002        1.13877533E-17
   8.0474997        1.13838697E-17
   8.1899996        1.13924244E-17
   8.3325005        1.14112022E-17
   8.4750004        1.14316716E-17
   8.6175003        1.14441728E-17
   8.7600002        1.14437931E-17
   8.9025002        1.14333731E-17
   9.0450001        1.14217786E-17
   9.1875000        1.14185021E-17
   9.3299999        1.14278459E-17
   9.4724998        1.14462292E-17
   9.6149998        1.14642659E-17
   9.7574997        1.14723871E-17
   9.8999996        1.14666159E-17
   10.042500        1.14510095E-17
   10.185000        1.14352740E-17
   10.327500        1.14289891E-17
   10.470000        1.14359200E-17
   10.612500        1.14518433E-17
   10.755000        1.14672205E-17
   10.897500        1.14730894E-17
   11.040000        1.14666175E-17
   11.182500        1.14529393E-17
   11.325000        1.14421437E-17
   11.467500        1.14432025E-17
   11.610000        1.14585004E-17
   11.752500        1.14822670E-17
   11.895000        1.15038911E-17
   12.037500        1.15141523E-17
   12.180000        1.15106393E-17
   12.322500        1.14991075E-17
   12.465000        1.14899614E-17
   12.607500        1.14919731E-17
   12.750000        1.15070021E-17
   12.892500        1.15288976E-17
   13.035000        1.15472246E-17
   13.177500        1.15535774E-17
   13.320000        1.15466655E-17
   13.462500        1.15331220E-17
   13.605000        1.15235267E-17
   13.747500        1.15260405E-17
   13.890000        1.15414749E-17
   14.032500        1.15627541E-17
   14.175000        1.15791116E-17
   14.317500        1.15824882E-17
   14.460000        1.15723147E-17
   14.602500        1.15558207E-17
   14.745000        1.15437000E-17
   14.887500        1.15437472E-17
   15.030000        1.15562930E-17
   15.172500        1.15741502E-17
   15.315000        1.15870765E-17
   15.457500        1.15880377E-17
   15.600000        1.15774928E-17
   15.742500        1.15631264E-17
   15.885000        1.15551937E-17
   16.027500        1.15603255E-17
   16.170000        1.15775061E-17
   16.312500        1.15986587E-17
   16.455000        1.16134686E-17
   16.597500        1.16155258E-17
   16.740000        1.16060959E-17
   16.882500        1.15932564E-17
   17.025000        1.15869558E-17
   17.167500        1.15929901E-17
   17.309999        1.16095345E-17
   17.452499        1.16283115E-17
   17.594999        1.16396604E-17
   17.737499        1.16384221E-17
   17.879999        1.16270641E-17
   18.022499        1.16141741E-17
   18.165001        1.16092367E-17
   18.307501        1.16168807E-17
   18.450001        1.16340802E-17
   18.592501        1.16520086E-17
   18.735001        1.16614227E-17
   18.877501        1.16582918E-17
   19.020000        1.16462762E-17
   19.162500        1.16345253E-17
   19.305000        1.16321546E-17
   19.447500        1.16427177E-17
   19.590000        1.16620497E-17
   19.732500        1.16807729E-17
   19.875000        1.16899604E-17
   20.017500        1.16865202E-17
   20.160000        1.16750364E-17
   20.302500        1.16649506E-17
   20.445000        1.16647844E-17
   20.587500        1.16769108E-17
   20.730000        1.16960526E-17
   20.872499        1.17124440E-17
   21.014999        1.17177496E-17
   21.157499        1.17101709E-17
   21.299999        1.16956382E-17
   21.442499        1.16843348E-17
   21.584999        1.16846367E-17
   21.727501        1.16981024E-17
   21.870001        1.17185428E-17
   22.012501        1.17357407E-17
   22.155001        1.17415798E-17
   22.297501        1.17349119E-17
   22.440001        1.17221998E-17
   22.582500        1.17135649E-17
   22.725000        1.17166014E-17
   22.867500        1.17316967E-17
   23.010000        1.17516880E-17
   23.152500        1.17660974E-17
   23.295000        1.17673936E-17
   23.437500        1.17555443E-17
   23.580000        1.17381040E-17
   23.722500        1.17257765E-17
   23.865000        1.17260966E-17
   24.007500        1.17390280E-17
   24.150000        1.17570837E-17
   24.292500        1.17699099E-17
   24.434999        1.17705518E-17
   24.577499        1.17596512E-17
   24.719999        1.17450498E-17
   24.862499        1.17370493E-17
   25.004999        1.17421903E-17
   25.147499        1.17592881E-17
   25.290001        1.17801074E-17
   25.432501        1.17942795E-17
   25.575001        1.17954806E-17
   25.717501        1.17851987E-17
   25.860001        1.17718066E-17
   26.002501        1.17655317E-17
   26.145000        1.17723443E-17
   26.287500        1.17904265E-17
   26.430000        1.18113318E-17
   26.572500        1.18250928E-17
   26.715000        1.18261979E-17
   26.857500        1.18168384E-17
   27.000000        1.18054779E-17
   27.142500        1.18016555E-17
   27.285000        1.18101671E-17
   27.427500        1.18281418E-17
   27.570000        1.18467666E-17
   27.712500        1.18566166E-17
   27.855000        1.18533344E-17
   27.997499        1.18402534E-17
   28.139999        1.18263882E-17
   28.282499        1.18210107E-17
   28.424999        1.18281153E-17
   28.567499        1.18440890E-17
   28.709999        1.18599965E-17
   28.852501        1.18670639E-17
   28.995001        1.18620289E-17
   29.137501        1.18491240E-17
   29.280001        1.18374922E-17
   29.422501        1.18356245E-17
   29.565001        1.18461933E-17
   29.707500        1.18644252E-17
   29.850000        1.18809920E-17
   29.992500        1.18876698E-17
   30.135000        1.18823312E-17
   30.277500        1.18702287E-17
   30.420000        1.18607989E-17
   30.562500        1.18619073E-17
   30.705000        1.18750297E-17
   30.847500        1.18942922E-17
   30.990000        1.19099673E-17
   31.132500        1.19143199E-17
   31.275000        1.19062632E-17
   31.417500        1.18920175E-17
   31.559999        1.18813510E-17
   31.702499        1.18816761E-17
   31.844999        1.18935726E-17
   31.987499        1.19104520E-17
   32.130001        1.19225702E-17
   32.272499        1.19229822E-17
   32.415001        1.19118169E-17
   32.557499        1.18962791E-17
   32.700001        1.18863530E-17
   32.842499        1.18887758E-17
   32.985001        1.19029139E-17
   33.127499        1.19210499E-17
   33.270000        1.19329191E-17
   33.412498        1.19318107E-17
   33.555000        1.19185535E-17
   33.697498        1.19010015E-17
   33.840000        1.18893391E-17
   33.982498        1.18900000E-17
   34.125000        1.19018734E-17
   34.267502        1.19170736E-17
   34.410000        1.19257996E-17
   34.552502        1.19223701E-17
   34.695000        1.19087836E-17
   34.837502        1.18936470E-17
   34.980000        1.18871173E-17
   35.122501        1.18948580E-17
   35.264999        1.19146649E-17
   35.407501        1.19377515E-17
   35.549999        1.19539526E-17
   35.692501        1.19577180E-17
   35.834999        1.19513156E-17
   35.977501        1.19433449E-17
   36.119999        1.19434623E-17
   36.262501        1.19565136E-17
   36.404999        1.19795762E-17
   36.547501        1.20036960E-17
   36.689999        1.20192313E-17
   36.832500        1.20215929E-17
   36.974998        1.20139299E-17
   37.117500        1.20051452E-17
   37.259998        1.20044661E-17
   37.402500        1.20158431E-17
   37.544998        1.20355391E-17
   37.687500        1.20543591E-17
   37.830002        1.20631537E-17
   37.972500        1.20582833E-17
   38.115002        1.20437605E-17
   38.257500        1.20287976E-17
   38.400002        1.20222670E-17
   38.542500        1.20274245E-17
   38.685001        1.20400597E-17
   38.827499        1.20511786E-17
   38.970001        1.20525575E-17
   39.112499        1.20418009E-17
   39.255001        1.20238378E-17
   39.397499        1.20079758E-17
   39.540001        1.20022931E-17
   39.682499        1.20087881E-17
   39.825001        1.20222141E-17
   39.967499        1.20332991E-17
   40.110001        1.20343927E-17
   40.252499        1.20241207E-17
   40.395000        1.20082198E-17
   40.537498        1.19960537E-17
   40.680000        1.19949312E-17
   40.822498        1.20056547E-17
   40.965000        1.20220189E-17
   41.107498        1.20345440E-17
   41.250000        1.20362025E-17
   41.392502        1.20266519E-17
   41.535000        1.20124285E-17
   41.677502        1.20029623E-17
   41.820000        1.20048507E-17
   41.962502        1.20178449E-17
   42.105000        1.20350064E-17
   42.247501        1.20469385E-17
   42.389999        1.20475423E-17
   42.532501        1.20378106E-17
   42.674999        1.20253193E-17
   42.817501        1.20197334E-17
   42.959999        1.20269811E-17
   43.102501        1.20456407E-17
   43.244999        1.20677140E-17
   43.387501        1.20833460E-17
   43.529999        1.20866647E-17
   43.672501        1.20792192E-17
   43.814999        1.20689556E-17
   43.957500        1.20653408E-17
   44.099998        1.20735654E-17
   44.242500        1.20913449E-17
   44.384998        1.21102344E-17
   44.527500        1.21207123E-17
   44.669998        1.21179462E-17
   44.812500        1.21047907E-17
   44.955002        1.20901852E-17
   45.097500        1.20838887E-17
   45.240002        1.20907030E-17
   45.382500        1.21076445E-17
   45.525002        1.21257539E-17
   45.667500        1.21354675E-17
   45.810001        1.21323226E-17
   45.952499        1.21195889E-17
   46.095001        1.21062440E-17
   46.237499        1.21015316E-17
   46.380001        1.21093683E-17
   46.522499        1.21259649E-17
   46.665001        1.21420891E-17
   46.807499        1.21486081E-17
   46.950001        1.21419782E-17
   47.092499        1.21263867E-17
   47.235001        1.21112716E-17
   47.377499        1.21057105E-17
   47.520000        1.21130443E-17
   47.662498        1.21289617E-17
   47.805000        1.21441678E-17
   47.947498        1.21500160E-17
   48.090000        1.21437029E-17
   48.232498        1.21299221E-17
   48.375000        1.21179958E-17
   48.517502        1.21162298E-17
   48.660000        1.21269153E-17
   48.802502        1.21449726E-17
   48.945000        1.21610439E-17
   49.087502        1.21671419E-17
   49.230000        1.21614501E-17
   49.372501        1.21493691E-17
   49.514999        1.21402114E-17
   49.657501        1.21415340E-17
   49.799999        1.21545588E-17
   49.942501        1.21734243E-17
   50.084999        1.21887206E-17
   50.227501        1.21931485E-17
   50.369999        1.21858883E-17
   50.512501        1.21730356E-17
   50.654999        1.21638712E-17
   50.797501        1.21652154E-17
   50.939999        1.21773146E-17
   51.082500        1.21937267E-17
   51.224998        1.22052766E-17
   51.367500        1.22056695E-17
   51.509998        1.21953430E-17
   51.652500        1.21812230E-17
   51.794998        1.21725260E-17
   51.937500        1.21751424E-17
   52.080002        1.21880199E-17
   52.222500        1.22037446E-17
   52.365002        1.22129859E-17
   52.507500        1.22101239E-17
   52.650002        1.21966590E-17
   52.792500        1.21803421E-17
   52.935001        1.21705292E-17
   53.077499        1.21725773E-17
   53.220001        1.21846699E-17
   53.362499        1.21989817E-17
   53.505001        1.22065016E-17
   53.647499        1.22025825E-17
   53.790001        1.21898505E-17
   53.932499        1.21766917E-17
   54.075001        1.21722117E-17
   54.217499        1.21806870E-17
   54.360001        1.21988759E-17
   54.502499        1.22178324E-17
   54.645000        1.22281547E-17
   54.787498        1.22255475E-17
   54.930000        1.22133375E-17
   55.072498        1.22004516E-17
   55.215000        1.21960444E-17
   55.357498        1.22040135E-17
   55.500000        1.22207002E-17
   55.642502        1.22371578E-17
   55.785000        1.22446115E-17
   55.927502        1.22398378E-17
   56.070000        1.22271977E-17
   56.212502        1.22160854E-17
   56.355000        1.22153152E-17
   56.497501        1.22278090E-17
   56.639999        1.22487706E-17
   56.782501        1.22684633E-17
   56.924999        1.22779320E-17
   57.067501        1.22742527E-17
   57.209999        1.22621792E-17
   57.352501        1.22512091E-17
   57.494999        1.22498467E-17
   57.637501        1.22605058E-17
   57.779999        1.22781016E-17
   57.922501        1.22931571E-17
   58.064999        1.22975486E-17
   58.207500        1.22894058E-17
   58.349998        1.22742419E-17
   58.492500        1.22616216E-17
   58.634998        1.22594114E-17
   58.777500        1.22690530E-17
   58.919998        1.22847124E-17
   59.062500        1.22968215E-17
   59.205002        1.22978505E-17
   59.347500        1.22868622E-17
   59.490002        1.22701011E-17
   59.632500        1.22572814E-17
   59.775002        1.22558264E-17
   59.917500        1.22665061E-17
   60.060001        1.22830977E-17
   60.202499        1.22962251E-17
   60.345001        1.22990392E-17
   60.487499        1.22913009E-17
   60.630001        1.22794027E-17
   60.772499        1.22723568E-17
   60.915001        1.22761891E-17
   61.057499        1.22901726E-17
   61.200001        1.23071712E-17
   61.342499        1.23179179E-17
   61.485001        1.23166192E-17
   61.627499        1.23045060E-17
   61.770000        1.22891684E-17
   61.912498        1.22800752E-17
   62.055000        1.22829786E-17
   62.197498        1.22965684E-17
   62.340000        1.23133858E-17
   62.482498        1.23244220E-17
   62.625000        1.23245957E-17
   62.767502        1.23157954E-17
   62.910000        1.23056268E-17
   63.052502        1.23026490E-17
   63.195000        1.23109969E-17
   63.337502        1.23276786E-17
   63.480000        1.23442231E-17
   63.622501        1.23517099E-17
   63.764999        1.23461504E-17
   63.907501        1.23309617E-17
   64.050003        1.23150236E-17
   64.192497        1.23074417E-17
   64.334999        1.23121831E-17
   64.477501        1.23257860E-17
   64.620003        1.23395404E-17
   64.762497        1.23448112E-17
   64.904999        1.23383046E-17
   65.047501        1.23240730E-17
   65.190002        1.23110639E-17
   65.332497        1.23076625E-17
   65.474998        1.23165506E-17
   65.617500        1.23329949E-17
   65.760002        1.23476203E-17
   65.902496        1.23520424E-17
   66.044998        1.23439542E-17
   66.187500        1.23286158E-17
   66.330002        1.23158127E-17
   66.472504        1.23140897E-17
   66.614998        1.23257008E-17
   66.757500        1.23453017E-17
   66.900002        1.23631639E-17
   67.042503        1.23709865E-17
   67.184998        1.23668200E-17
   67.327499        1.23561444E-17
   67.470001        1.23484748E-17
   67.612503        1.23515387E-17
   67.754997        1.23665338E-17
   67.897499        1.23873341E-17
   68.040001        1.24041101E-17
   68.182503        1.24092056E-17
   68.324997        1.24017212E-17
   68.467499        1.23880612E-17
   68.610001        1.23780978E-17
   68.752502        1.23792624E-17
   68.894997        1.23920995E-17
   69.037498        1.24099442E-17
   69.180000        1.24229070E-17
   69.322502        1.24237590E-17
   69.464996        1.24122033E-17
   69.607498        1.23949747E-17
   69.750000        1.23817523E-17
   69.892502        1.23793543E-17
   70.035004        1.23877427E-17
   70.177498        1.24002058E-17
   70.320000        1.24075983E-17
   70.462502        1.24040456E-17
   70.605003        1.23906469E-17
   70.747498        1.23749379E-17
   70.889999        1.23664213E-17
   71.032501        1.23708682E-17
   71.175003        1.23868278E-17
   71.317497        1.24064328E-17
   71.459999        1.24200185E-17
   71.602501        1.24217721E-17
   71.745003        1.24130098E-17
   71.887497        1.24011496E-17
   72.029999        1.23950343E-17
   72.172501        1.23994663E-17
   72.315002        1.24122827E-17
   72.457497        1.24257376E-17
   72.599998        1.24313351E-17
   72.742500        1.24251519E-17
   72.885002        1.24104091E-17
   73.027496        1.23956869E-17
   73.169998        1.23898495E-17
   73.312500        1.23967284E-17
   73.455002        1.24127897E-17
   73.597504        1.24291977E-17
   73.739998        1.24370410E-17
   73.882500        1.24325792E-17
   74.025002        1.24193468E-17
   74.167503        1.24058712E-17
   74.309998        1.24003804E-17
   74.452499        1.24057513E-17
   74.595001        1.24177421E-17
   74.737503        1.24276236E-17
   74.879997        1.24275913E-17
   75.022499        1.24156857E-17
   75.165001        1.23972007E-17
   75.307503        1.23816910E-17
   75.449997        1.23773459E-17
   75.592499        1.23861057E-17
   75.735001        1.24024756E-17
   75.877502        1.24167718E-17
   76.019997        1.24208729E-17
   76.162498        1.24130296E-17
   76.305000        1.23988459E-17
   76.447502        1.23878461E-17
   76.589996        1.23876939E-17
   76.732498        1.23995548E-17
   76.875000        1.24173971E-17
   77.017502        1.24316577E-17
   77.160004        1.24350641E-17
   77.302498        1.24270942E-17
   77.445000        1.24143672E-17
   77.587502        1.24066951E-17
   77.730003        1.24111685E-17
   77.872498        1.24278064E-17
   78.014999        1.24494090E-17
   78.157501        1.24657152E-17
   78.300003        1.24693929E-17
   78.442497        1.24602848E-17
   78.584999        1.24453897E-17
   78.727501        1.24346033E-17
   78.870003        1.24347853E-17
   79.012497        1.24457190E-17
   79.154999        1.24603741E-17
   79.297501        1.24692853E-17
   79.440002        1.24663852E-17
   79.582497        1.24527740E-17
   79.724998        1.24361328E-17
   79.867500        1.24261462E-17
   80.010002        1.24286782E-17
   80.152496        1.24422225E-17
   80.294998        1.24587520E-17
   80.437500        1.24684681E-17
   80.580002        1.24655978E-17
   80.722504        1.24517698E-17
   80.864998        1.24349681E-17
   81.007500        1.24247144E-17
   81.150002        1.24263985E-17
   81.292503        1.24381610E-17
   81.434998        1.24521743E-17
   81.577499        1.24595089E-17
   81.720001        1.24556129E-17
   81.862503        1.24430712E-17
   82.004997        1.24299843E-17
   82.147499        1.24249633E-17
   82.290001        1.24317917E-17
   82.432503        1.24469994E-17
   82.574997        1.24618316E-17
   82.717499        1.24674457E-17
   82.860001        1.24601905E-17
   83.002502        1.24438024E-17
   83.144997        1.24271901E-17
   83.287498        1.24191508E-17
   83.430000        1.24232221E-17
   83.572502        1.24357473E-17
   83.714996        1.24483022E-17
   83.857498        1.24529891E-17
   84.000000        1.24473353E-17
   84.142502        1.24358300E-17
   84.285004        1.24271471E-17
   84.427498        1.24287427E-17
   84.570000        1.24421364E-17
   84.712502        1.24617547E-17
   84.855003        1.24780874E-17
   84.997498        1.24832870E-17
   85.139999        1.24758374E-17
   85.282501        1.24614643E-17
   85.425003        1.24497391E-17
   85.567497        1.24483874E-17
   85.709999        1.24587388E-17
   85.852501        1.24750458E-17
   85.995003        1.24880739E-17
   86.137497        1.24907738E-17
   86.279999        1.24826054E-17
   86.422501        1.24698685E-17
   86.565002        1.24618440E-17
   86.707497        1.24650601E-17
   86.849998        1.24791759E-17
   86.992500        1.24970009E-17
   87.135002        1.25086823E-17
   87.277496        1.25075640E-17
   87.419998        1.24942182E-17
   87.562500        1.24762006E-17
   87.705002        1.24636489E-17
   87.847504        1.24633611E-17
   87.989998        1.24748688E-17
   88.132500        1.24908508E-17
   88.275002        1.25016322E-17
   88.417503        1.25010292E-17
   88.559998        1.24900434E-17
   88.702499        1.24761675E-17
   88.845001        1.24687435E-17
   88.987503        1.24731764E-17
   89.129997        1.24875073E-17
   89.272499        1.25034396E-17
   89.415001        1.25112168E-17
   89.557503        1.25054414E-17
   89.699997        1.24883477E-17
   89.842499        1.24685624E-17
   89.985001        1.24560902E-17
   90.127502        1.24565203E-17
   90.269997        1.24678940E-17
   90.412498        1.24820967E-17
   90.555000        1.24898805E-17
   90.697502        1.24864874E-17
   90.839996        1.24744833E-17
   90.982498        1.24621195E-17
   91.125000        1.24582375E-17
   91.267502        1.24668170E-17
   91.410004        1.24844715E-17
   91.552498        1.25024023E-17
   91.695000        1.25116370E-17
   91.837502        1.25083804E-17
   91.980003        1.24962705E-17