  -30.000000        9.78447028E-19
  -29.857500        9.80199823E-19
  -29.715000        9.83398221E-19
  -29.572500        9.87514375E-19
  -29.430000        9.91906497E-19
  -29.287500        9.95948929E-19
  -29.145000        9.99149704E-19
  -29.002501        1.00123999E-18
  -28.860001        1.00221586E-18
  -28.717501        1.00232742E-18
  -28.575001        1.00202137E-18
  -28.432501        1.00184714E-18
  -28.290001        1.00234490E-18
  -28.147499        1.00393422E-18
  -28.004999        1.00682036E-18
  -27.862499        1.01094602E-18
  -27.719999        1.01599276E-18
  -27.577499        1.02143912E-18
  -27.434999        1.02666421E-18
  -27.292500        1.03107629E-18
  -27.150000        1.03423715E-18
  -27.007500        1.03595004E-18
  -26.865000        1.03630097E-18
  -26.722500        1.03563705E-18
  -26.580000        1.03449234E-18
  -26.437500        1.03347873E-18
  -26.295000        1.03316844E-18
  -26.152500        1.03398311E-18
  -26.010000        1.03611734E-18
  -25.867500        1.03950381E-18
  -25.725000        1.04382852E-18
  -25.582500        1.04859039E-18
  -25.440001        1.05319965E-18
  -25.297501        1.05709681E-18
  -25.155001        1.05986466E-18
  -25.012501        1.06131957E-18
  -24.870001        1.06154993E-18
  -24.727501        1.06089936E-18
  -24.584999        1.05989351E-18
  -24.442499        1.05912785E-18
  -24.299999        1.05913943E-18
  -24.157499        1.06029738E-18
  -24.014999        1.06272898E-18
  -23.872499        1.06630033E-18
  -23.730000        1.07064778E-18
  -23.587500        1.07525342E-18
  -23.445000        1.07954949E-18
  -23.302500        1.08302861E-18
  -23.160000        1.08534410E-18
  -23.017500        1.08637838E-18
  -22.875000        1.08626930E-18
  -22.732500        1.08538711E-18
  -22.590000        1.08426090E-18
  -22.447500        1.08347043E-18
  -22.305000        1.08352637E-18
  -22.162500        1.08475762E-18
  -22.020000        1.08724113E-18
  -21.877501        1.09078725E-18
  -21.735001        1.09498003E-18
  -21.592501        1.09926958E-18
  -21.450001        1.10308898E-18
  -21.307501        1.10597305E-18
  -21.165001        1.10765274E-18
  -21.022499        1.10810480E-18
  -20.879999        1.10755834E-18
  -20.737499        1.10644702E-18
  -20.594999        1.10532578E-18
  -20.452499        1.10476412E-18
  -20.309999        1.10523086E-18
  -20.167500        1.10699844E-18
  -20.025000        1.11008103E-18
  -19.882500        1.11422562E-18
  -19.740000        1.11896010E-18
  -19.597500        1.12368805E-18
  -19.455000        1.12781651E-18
  -19.312500        1.13088266E-18
  -19.170000        1.13265593E-18
  -19.027500        1.13318677E-18
  -18.885000        1.13279448E-18
  -18.742500        1.13200287E-18
  -18.600000        1.13143098E-18
  -18.457500        1.13167045E-18
  -18.315001        1.13316599E-18
  -18.172501        1.13612771E-18
  -18.030001        1.14048540E-18
  -17.887501        1.14589299E-18
  -17.745001        1.15178428E-18
  -17.602501        1.15747331E-18
  -17.459999        1.16228016E-18
  -17.317499        1.16566271E-18
  -17.174999        1.16732390E-18
  -17.032499        1.16727468E-18
  -16.889999        1.16583332E-18
  -16.747499        1.16356353E-18
  -16.605000        1.16115964E-18
  -16.462500        1.15930903E-18
  -16.320000        1.15855982E-18
  -16.177500        1.15922073E-18
  -16.035000        1.16131123E-18
  -15.892500        1.16457094E-18
  -15.750000        1.16852041E-18
  -15.607500        1.17255840E-18
  -15.465000        1.17608085E-18
  -15.322500        1.17859341E-18
  -15.180000        1.17980874E-18
  -15.037500        1.17969955E-18
  -14.895000        1.17850273E-18
  -14.752500        1.17667094E-18
  -14.610000        1.17477597E-18
  -14.467500        1.17338682E-18
  -14.325000        1.17294356E-18
  -14.182500        1.17366186E-18
  -14.040000        1.17548486E-18
  -13.897500        1.17809730E-18
  -13.755000        1.18099399E-18
  -13.612500        1.18358916E-18
  -13.470000        1.18534124E-18
  -13.327500        1.18586536E-18
  -13.185000        1.18501078E-18
  -13.042500        1.18289630E-18
  -12.900000        1.17989467E-18
  -12.757500        1.17656485E-18
  -12.615000        1.17355794E-18
  -12.472500        1.17149403E-18
  -12.330000        1.17084893E-18
  -12.187500        1.17185819E-18
  -12.045000        1.17447208E-18
  -11.902500        1.17836180E-18
  -11.760000        1.18298563E-18
  -11.617500        1.18769911E-18
  -11.475000        1.19188372E-18
  -11.332500        1.19506960E-18
  -11.190000        1.19702020E-18
  -11.047500        1.19776952E-18
  -10.905000        1.19759933E-18
  -10.762500        1.19696974E-18
  -10.620000        1.19641925E-18
  -10.477500        1.19645120E-18
  -10.335000        1.19743286E-18
  -10.192500        1.19951890E-18
  -10.050000        1.20261773E-18
  -9.9075003        1.20640425E-18
  -9.7650003        1.21037761E-18
  -9.6225004        1.21395982E-18
  -9.4799995        1.21660866E-18
  -9.3374996        1.21793132E-18
  -9.1949997        1.21776765E-18
  -9.0524998        1.21622134E-18
  -8.9099998        1.21364053E-18
  -8.7674999        1.21054026E-18
  -8.6250000        1.20749830E-18
  -8.4825001        1.20503754E-18
  -8.3400002        1.20352742E-18
  -8.1975002        1.20312210E-18
  -8.0550003        1.20374321E-18
  -7.9124999        1.20510816E-18
  -7.7700000        1.20679654E-18
  -7.6275001        1.20834099E-18
  -7.4850001        1.20932193E-18
  -7.3425002        1.20945986E-18
  -7.1999998        1.20867672E-18
  -7.0574999        1.20711811E-18
  -6.9150000        1.20513112E-18
  -6.7725000        1.20319603E-18
  -6.6300001        1.20182209E-18
  -6.4875002        1.20143786E-18
  -6.3449998        1.20229430E-18
  -6.2024999        1.20440806E-18
  -6.0599999        1.20755724E-18
  -5.9175000        1.21132763E-18
  -5.7750001        1.21520194E-18
  -5.6325002        1.21866534E-18
  -5.4899998        1.22130684E-18
  -5.3474998        1.22289658E-18
  -5.2049999        1.22342742E-18
  -5.0625000        1.22311061E-18
  -4.9200001        1.22233389E-18
  -4.7775002        1.22158498E-18
  -4.6350002        1.22135110E-18
  -4.4924998        1.22201718E-18
  -4.3499999        1.22377701E-18
  -4.2075000        1.22658363E-18
  -4.0650001        1.23014330E-18
  -3.9224999        1.23396715E-18
  -3.7800000        1.23746582E-18
  -3.6375000        1.24007309E-18
  -3.4949999        1.24136091E-18
  -3.3525000        1.24113095E-18
  -3.2100000        1.23945653E-18
  -3.0675001        1.23666831E-18
  -2.9250000        1.23328979E-18
  -2.7825000        1.22994106E-18
  -2.6400001        1.22722087E-18
  -2.4974999        1.22560508E-18
  -2.3550000        1.22536147E-18
  -2.2125001        1.22650474E-18
  -2.0699999        1.22879851E-18
  -1.9275000        1.23180614E-18
  -1.7850000        1.23497673E-18
  -1.6425000        1.23776122E-18
  -1.5000000        1.23972733E-18
  -1.3575000        1.24065232E-18
  -1.2150000        1.24057095E-18
  -1.0725000        1.23976548E-18
 -0.93000001        1.23870214E-18
 -0.78750002        1.23792438E-18
 -0.64499998        1.23793483E-18
 -0.50250000        1.23908223E-18
 -0.36000001        1.24148757E-18
 -0.21750000        1.24501518E-18
 -7.50000030E-02    1.24929574E-18
  6.75000027E-02    1.25379488E-18
  0.20999999        1.25791434E-18
  0.35249999        1.26110302E-18
  0.49500000        1.26296604E-18
  0.63749999        1.26334602E-18
  0.77999997        1.26236147E-18
  0.92250001        1.26039185E-18
   1.0650001        1.25800543E-18
   1.2075000        1.25584990E-18
   1.3500000        1.25451763E-18
   1.4924999        1.25442447E-18
   1.6350000        1.25572376E-18
   1.7775000        1.25827592E-18
   1.9200000        1.26167956E-18
   2.0625000        1.26535524E-18
   2.2049999        1.26866179E-18
   2.3475001        1.27102081E-18
   2.4900000        1.27202718E-18
   2.6324999        1.27152301E-18
   2.7750001        1.26962949E-18
   2.9175000        1.26672485E-18
   3.0599999        1.26338118E-18
   3.2025001        1.26025816E-18
   3.3450000        1.25798238E-18
   3.4875000        1.25702822E-18
   3.6300001        1.25762741E-18
   3.7725000        1.25972111E-18
   3.9150000        1.26298196E-18
   4.0574999        1.26688243E-18
   4.1999998        1.27080947E-18
   4.3425002        1.27419015E-18
   4.4850001        1.27660314E-18
   4.6275001        1.27785115E-18
   4.7700000        1.27798433E-18
   4.9124999        1.27726758E-18
   5.0549998        1.27611562E-18
   5.1975002        1.27499665E-18
   5.3400002        1.27433470E-18
   5.4825001        1.27442290E-18
   5.6250000        1.27536103E-18
   5.7674999        1.27703245E-18
   5.9099998        1.27912522E-18
   6.0524998        1.28119255E-18
   6.1950002        1.28274930E-18
   6.3375001        1.28338240E-18
   6.4800000        1.28284856E-18
   6.6224999        1.28114012E-18
   6.7649999        1.27849976E-18
   6.9074998        1.27537860E-18
   7.0500002        1.27234802E-18
   7.1925001        1.26998549E-18
   7.3350000        1.26876530E-18
   7.4775000        1.26896754E-18
   7.6199999        1.27063214E-18
   7.7624998        1.27355746E-18
   7.9050002        1.27734171E-18
   8.0474997        1.28146179E-18
   8.1899996        1.28536857E-18
   8.3325005        1.28859033E-18
   8.4750004        1.29082000E-18
   8.6175003        1.29197495E-18
   8.7600002        1.29221080E-18
   8.9025002        1.29188810E-18
   9.0450001        1.29149115E-18
   9.1875000        1.29152165E-18
   9.3299999        1.29238316E-18
   9.4724998        1.29428692E-18
   9.6149998        1.29720190E-18
   9.7574997        1.30085711E-18
   9.8999996        1.30479449E-18
   10.042500        1.30846169E-18
   10.185000        1.31131702E-18
   10.327500        1.31293560E-18
   10.470000        1.31308760E-18
   10.612500        1.31178272E-18
   10.755000        1.30927316E-18
   10.897500        1.30600952E-18
   11.040000        1.30256234E-18
   11.182500        1.29951842E-18
   11.325000        1.29737272E-18
   11.467500        1.29643118E-18
   11.610000        1.29675812E-18
   11.752500        1.29816877E-18
   11.895000        1.30027715E-18
   12.037500        1.30258830E-18
   12.180000        1.30460693E-18
   12.322500        1.30594417E-18
   12.465000        1.30639798E-18
   12.607500        1.30598801E-18
   12.750000        1.30494473E-18
   12.892500        1.30365836E-18
   13.035000        1.30259874E-18
   13.177500        1.30222051E-18
   13.320000        1.30287099E-18
   13.462500        1.30471622E-18
   13.605000        1.30769945E-18
   13.747500        1.31154046E-18
   13.890000        1.31578028E-18
   14.032500        1.31986820E-18
   14.175000        1.32327091E-18
   14.317500        1.32558350E-18
   14.460000        1.32661086E-18
   14.602500        1.32641058E-18
   14.745000        1.32527373E-18
   14.887500        1.32365866E-18
   15.030000        1.32209580E-18
   15.172500        1.32107578E-18
   15.315000        1.32095719E-18
   15.457500        1.32190172E-18
   15.600000        1.32384798E-18
   15.742500        1.32652690E-18
   15.885000        1.32951272E-18
   16.027500        1.33230445E-18
   16.170000        1.33442400E-18
   16.312500        1.33551257E-18
   16.455000        1.33541103E-18
   16.597500        1.33420490E-18
   16.740000        1.33221677E-18
   16.882500        1.32995050E-18
   17.025000        1.32798781E-18
   17.167500        1.32687018E-18
   17.309999        1.32698527E-18
   17.452499        1.32848660E-18
   17.594999        1.33126520E-18
   17.737499        1.33497263E-18
   17.879999        1.33908992E-18
   18.022499        1.34302647E-18
   18.165001        1.34622363E-18
   18.307501        1.34825208E-18
   18.450001        1.34888332E-18
   18.592501        1.34812707E-18
   18.735001        1.34622745E-18
   18.877501        1.34361821E-18
   19.020000        1.34084023E-18
   19.162500        1.33843810E-18
   19.305000        1.33685208E-18
   19.447500        1.33633086E-18
   19.590000        1.33688796E-18
   19.732500        1.33830606E-18
   19.875000        1.34019648E-18
   20.017500        1.34209062E-18
   20.160000        1.34354646E-18
   20.302500        1.34424129E-18
   20.445000        1.34403780E-18
   20.587500        1.34300517E-18
   20.730000        1.34139816E-18
   20.872499        1.33960432E-18
   21.014999        1.33806504E-18
   21.157499        1.33718688E-18
   21.299999        1.33726195E-18
   21.442499        1.33840325E-18
   21.584999        1.34052073E-18
   21.727501        1.34333377E-18
   21.870001        1.34643073E-18
   22.012501        1.34935647E-18
   22.155001        1.35171424E-18
   22.297501        1.35325425E-18
   22.440001        1.35393171E-18
   22.582500        1.35391341E-18
   22.725000        1.35353869E-18
   22.867500        1.35324329E-18
   23.010000        1.35346259E-18
   23.152500        1.35453813E-18
   23.295000        1.35664548E-18
   23.437500        1.35975206E-18
   23.580000        1.36361375E-18
   23.722500        1.36781511E-18
   23.865000        1.37183531E-18
   24.007500        1.37514672E-18
   24.150000        1.37731362E-18
   24.292500        1.37808156E-18
   24.434999        1.37743491E-18
   24.577499        1.37560611E-18
   24.719999        1.37303193E-18
   24.862499        1.37026336E-18
   25.004999        1.36785419E-18
   25.147499        1.36624584E-18
   25.290001        1.36568615E-18
   25.432501        1.36618742E-18
   25.575001        1.36753831E-18
   25.717501        1.36936028E-18
   25.860001        1.37118825E-18
   26.002501        1.37257191E-18
   26.145000        1.37316490E-18
   26.287500        1.37279525E-18
   26.430000        1.37150754E-18
   26.572500        1.36956335E-18
   26.715000        1.36739883E-18
   26.857500        1.36554460E-18
   27.000000        1.36452138E-18
   27.142500        1.36472683E-18
   27.285000        1.36634717E-18
   27.427500        1.36931210E-18
   27.570000        1.37330252E-18
   27.712500        1.37781458E-18
   27.855000        1.38226202E-18
   27.997499        1.38609404E-18
   28.139999        1.38889849E-18
   28.282499        1.39047241E-18
   28.424999        1.39084588E-18
   28.567499        1.39026386E-18
   28.709999        1.38912576E-18
   28.852501        1.38790453E-18
   28.995001        1.38705078E-18
   29.137501        1.38690116E-18
   29.280001        1.38761006E-18
   29.422501        1.38911129E-18
   29.565001        1.39112785E-18
   29.707500        1.39322754E-18
   29.850000        1.39491344E-18
   29.992500        1.39573928E-18
   30.135000        1.39541544E-18
   30.277500        1.39388164E-18
   30.420000        1.39133258E-18
   30.562500        1.38818350E-18
   30.705000        1.38499182E-18
   30.847500        1.38234908E-18
   30.990000        1.38076700E-18
   31.132500        1.38058316E-18
   31.275000        1.38189786E-18
   31.417500        1.38455569E-18
   31.559999        1.38817295E-18
   31.702499        1.39220225E-18
   31.844999        1.39602941E-18
   31.987499        1.39908853E-18
   32.130001        1.40096799E-18
   32.272499        1.40149232E-18
   32.415001        1.40075964E-18
   32.557499        1.39912276E-18
   32.700001        1.39712046E-18
   32.842499        1.39536487E-18
   32.985001        1.39442354E-18
   33.127499        1.39470520E-18
   33.270000        1.39638768E-18
   33.412498        1.39938869E-18
   33.555000        1.40338853E-18
   33.697498        1.40789284E-18
   33.840000        1.41232373E-18
   33.982498        1.41612318E-18
   34.125000        1.41884750E-18
   34.267502        1.42024636E-18
   34.410000        1.42030023E-18
   34.552502        1.41922335E-18
   34.695000        1.41741265E-18
   34.837502        1.41536590E-18
   34.980000        1.41357298E-18
   35.122501        1.41241431E-18
   35.264999        1.41208364E-18
   35.407501        1.41255607E-18
   35.549999        1.41360576E-18
   35.692501        1.41486597E-18
   35.834999        1.41591990E-18
   35.977501        1.41639232E-18
   36.119999        1.41603240E-18
   36.262501        1.41476578E-18
   36.404999        1.41271406E-18
   36.547501        1.41018061E-18
   36.689999        1.40760136E-18
   36.832500        1.40547292E-18
   36.974998        1.40426317E-18
   37.117500        1.40432417E-18
   37.259998        1.40581651E-18
   37.402500        1.40867349E-18
   37.544998        1.41260539E-18
   37.687500        1.41715395E-18
   37.830002        1.42178140E-18
   37.972500        1.42597707E-18
   38.115002        1.42935280E-18
   38.257500        1.43170716E-18
   38.400002        1.43304843E-18
   38.542500        1.43356842E-18
   38.685001        1.43358775E-18
   38.827499        1.43347650E-18
   38.970001        1.43357959E-18
   39.112499        1.43414424E-18
   39.255001        1.43527406E-18
   39.397499        1.43690692E-18
   39.540001        1.43882670E-18
   39.682499        1.44070451E-18
   39.825001        1.44216996E-18
   39.967499        1.44289354E-18
   40.110001        1.44267206E-18
   40.252499        1.44148619E-18
   40.395000        1.43952091E-18
   40.537498        1.43713884E-18
   40.680000        1.43480878E-18
   40.822498        1.43301162E-18
   40.965000        1.43214195E-18
   41.107498        1.43242929E-18
   41.250000        1.43389629E-18
   41.392502        1.43635974E-18
   41.535000        1.43946756E-18
   41.677502        1.44276708E-18
   41.820000        1.44578422E-18
   41.962502        1.44810736E-18
   42.105000        1.44945876E-18
   42.247501        1.44974135E-18
   42.389999        1.44905438E-18
   42.532501        1.44766947E-18
   42.674999        1.44596910E-18
   42.817501        1.44436344E-18
   42.959999        1.44319618E-18
   43.102501        1.44267061E-18
   43.244999        1.44280492E-18
   43.387501        1.44343958E-18
   43.529999        1.44428144E-18
   43.672501        1.44498020E-18
   43.814999        1.44521522E-18
   43.957500        1.44477186E-18
   44.099998        1.44359333E-18
   44.242500        1.44179793E-18
   44.384998        1.43966464E-18
   44.527500        1.43758242E-18
   44.669998        1.43598213E-18
   44.812500        1.43525463E-18
   44.955002        1.43566884E-18
   45.097500        1.43731069E-18
   45.240002        1.44005672E-18
   45.382500        1.44358599E-18
   45.525002        1.44743848E-18
   45.667500        1.45110744E-18
   45.810001        1.45413957E-18
   45.952499        1.45622645E-18
   46.095001        1.45726115E-18
   46.237499        1.45735100E-18
   46.380001        1.45678510E-18
   46.522499        1.45596506E-18
   46.665001        1.45532554E-18
   46.807499        1.45524727E-18
   46.950001        1.45599049E-18
   47.092499        1.45764744E-18
   47.235001        1.46012588E-18
   47.377499        1.46316618E-18
   47.520000        1.46638691E-18
   47.662498        1.46935794E-18
   47.805000        1.47168749E-18
   47.947498        1.47310931E-18
   48.090000        1.47354006E-18
   48.232498        1.47310021E-18
   48.375000        1.47208732E-18
   48.517502        1.47090363E-18
   48.660000        1.46996312E-18
   48.802502        1.46959720E-18
   48.945000        1.46998732E-18
   49.087502        1.47112697E-18
   49.230000        1.47283334E-18
   49.372501        1.47478507E-18
   49.514999        1.47658905E-18
   49.657501        1.47785339E-18
   49.799999        1.47825840E-18
   49.942501        1.47762147E-18
   50.084999        1.47593620E-18
   50.227501        1.47338869E-18
   50.369999        1.47033505E-18
   50.512501        1.46724356E-18
   50.654999        1.46460909E-18
   50.797501        1.46285526E-18
   50.939999        1.46224615E-18
   51.082500        1.46283252E-18
   51.224998        1.46444314E-18
   51.367500        1.46672606E-18
   51.509998        1.46922662E-18
   51.652500        1.47147986E-18
   51.794998        1.47310000E-18
   51.937500        1.47385077E-18
   52.080002        1.47367810E-18
   52.222500        1.47271650E-18
   52.365002        1.47125932E-18
   52.507500        1.46970649E-18
   52.650002        1.46849095E-18
   52.792500        1.46799774E-18
   52.935001        1.46848681E-18
   53.077499        1.47003364E-18
   53.220001        1.47250702E-18
   53.362499        1.47559033E-18
   53.505001        1.47884436E-18
   53.647499        1.48179977E-18
   53.790001        1.48405332E-18
   53.932499        1.48535168E-18
   54.075001        1.48563871E-18
   54.217499        1.48505989E-18
   54.360001        1.48392748E-18
   54.502499        1.48265631E-18
   54.645000        1.48168427E-18
   54.787498        1.48139197E-18
   54.930000        1.48203138E-18
   55.072498        1.48367633E-18
   55.215000        1.48620326E-18
   55.357498        1.48930550E-18
   55.500000        1.49254702E-18
   55.642502        1.49544535E-18
   55.785000        1.49757110E-18
   55.927502        1.49863713E-18
   56.070000        1.49856227E-18
   56.212502        1.49748518E-18
   56.355000        1.49573135E-18
   56.497501        1.49374260E-18
   56.639999        1.49198019E-18
   56.782501        1.49083610E-18
   56.924999        1.49056054E-18
   57.067501        1.49122177E-18
   57.209999        1.49269849E-18
   57.352501        1.49470492E-18
   57.494999        1.49684453E-18
   57.637501        1.49868315E-18
   57.779999        1.49983530E-18
   57.922501        1.50004613E-18
   58.064999        1.49925452E-18
   58.207500        1.49761970E-18
   58.349998        1.49549788E-18
   58.492500        1.49337265E-18
   58.634998        1.49175220E-18
   58.777500        1.49105768E-18
   58.919998        1.49153248E-18
   59.062500        1.49319511E-18
   59.205002        1.49583878E-18
   59.347500        1.49908371E-18
   59.490002        1.50245499E-18
   59.632500        1.50547295E-18
   59.775002        1.50774036E-18
   59.917500        1.50900915E-18
   60.060001        1.50922132E-18
   60.202499        1.50852215E-18
   60.345001        1.50723702E-18
   60.487499        1.50581375E-18
   60.630001        1.50473738E-18
   60.772499        1.50442833E-18
   60.915001        1.50514601E-18
   61.057499        1.50692507E-18
   61.200001        1.50956098E-18
   61.342499        1.51264926E-18
   61.485001        1.51567550E-18
   61.627499        1.51812634E-18
   61.770000        1.51959737E-18
   61.912498        1.51987231E-18
   62.055000        1.51895827E-18
   62.197498        1.51707561E-18
   62.340000        1.51461196E-18
   62.482498        1.51205007E-18
   62.625000        1.50988245E-18
   62.767502        1.50852753E-18
   62.910000        1.50825528E-18
   63.052502        1.50913230E-18
   63.195000        1.51100700E-18
   63.337502        1.51353052E-18
   63.480000        1.51622547E-18
   63.622501        1.51858356E-18
   63.764999        1.52017506E-18
   63.907501        1.52073795E-18
   64.050003        1.52023285E-18
   64.192497        1.51884329E-18
   64.334999        1.51692972E-18
   64.477501        1.51495110E-18
   64.620003        1.51337325E-18
   64.762497        1.51258371E-18
   64.904999        1.51282917E-18
   65.047501        1.51417582E-18
   65.190002        1.51650816E-18
   65.332497        1.51954547E-18
   65.474998        1.52289472E-18
   65.617500        1.52612021E-18
   65.760002        1.52882561E-18
   65.902496        1.53073433E-18
   66.044998        1.53174194E-18
   66.187500        1.53193270E-18
   66.330002        1.53155179E-18
   66.472504        1.53093688E-18
   66.614998        1.53043499E-18
   66.757500        1.53031877E-18
   66.900002        1.53073102E-18
   67.042503        1.53165973E-18
   67.184998        1.53295231E-18
   67.327499        1.53435366E-18
   67.470001        1.53555772E-18
   67.612503        1.53626847E-18
   67.754997        1.53625565E-18
   67.897499        1.53540231E-18
   68.040001        1.53374247E-18
   68.182503        1.53146804E-18
   68.324997        1.52891050E-18
   68.467499        1.52648500E-18
   68.610001        1.52461143E-18
   68.752502        1.52362274E-18
   68.894997        1.52369171E-18
   69.037498        1.52479269E-18
   69.180000        1.52671071E-18
   69.322502        1.52909196E-18
   69.464996        1.53152077E-18
   69.607498        1.53360475E-18
   69.750000        1.53504332E-18
   69.892502        1.53567290E-18
   70.035004        1.53548482E-18
   70.177498        1.53462032E-18
   70.320000        1.53334667E-18
   70.462502        1.53201098E-18
   70.605003        1.53098269E-18
   70.747498        1.53058523E-18
   70.889999        1.53102477E-18
   71.032501        1.53233926E-18
   71.175003        1.53438230E-18
   71.317497        1.53684667E-18
   71.459999        1.53933370E-18
   71.602501        1.54144073E-18
   71.745003        1.54285593E-18
   71.887497        1.54341935E-18
   72.029999        1.54315103E-18
   72.172501        1.54223441E-18
   72.315002        1.54096789E-18
   72.457497        1.53970200E-18
   72.599998        1.53877318E-18
   72.742500        1.53844954E-18
   72.885002        1.53888826E-18
   73.027496        1.54010835E-18
   73.169998        1.54198657E-18
   73.312500        1.54427486E-18
   73.455002        1.54664690E-18
   73.597504        1.54876604E-18
   73.739998        1.55036281E-18
   73.882500        1.55129783E-18
   74.025002        1.55160016E-18
   74.167503        1.55145510E-18
   74.309998        1.55115493E-18
   74.452499        1.55102269E-18
   74.595001        1.55132885E-18
   74.737503        1.55222520E-18
   74.879997        1.55371268E-18
   75.022499        1.55564229E-18
   75.165001        1.55774570E-18
   75.307503        1.55968430E-18
   75.449997        1.56111346E-18
   75.592499        1.56174378E-18
   75.735001        1.56140060E-18
   75.877502        1.56007091E-18
   76.019997        1.55792448E-18
   76.162498        1.55529621E-18
   76.305000        1.55263362E-18
   76.447502        1.55040923E-18
   76.589996        1.54902246E-18
   76.732498        1.54870906E-18
   76.875000        1.54949199E-18
   77.017502        1.55117872E-18
   77.160004        1.55340652E-18
   77.302498        1.55572366E-18
   77.445000        1.55768242E-18
   77.587502        1.55892330E-18
   77.730003        1.55923639E-18
   77.872498        1.55859646E-18
   78.014999        1.55716678E-18
   78.157501        1.55527833E-18
   78.300003        1.55337312E-18
   78.442497        1.55193207E-18
   78.584999        1.55138365E-18
   78.727501        1.55201293E-18
   78.870003        1.55389466E-18
   79.012497        1.55686951E-18
   79.154999        1.56057290E-18
   79.297501        1.56451369E-18
   79.440002        1.56818286E-18
   79.582497        1.57116268E-18
   79.724998        1.57320705E-18
   79.867500        1.57427639E-18
   80.010002        1.57452661E-18
   80.152496        1.57425695E-18
   80.294998        1.57383943E-18
   80.437500        1.57363863E-18
   80.580002        1.57394324E-18
   80.722504        1.57490587E-18
   80.864998        1.57650843E-18
   81.007500        1.57855012E-18
   81.150002        1.58067422E-18
   81.292503        1.58242732E-18
   81.434998        1.58335294E-18
   81.577499        1.58309755E-18
   81.720001        1.58149778E-18
   81.862503        1.57863460E-18
   82.004997        1.57482522E-18
   82.147499        1.57056504E-18
   82.290001        1.56642583E-18
   82.432503        1.56294391E-18
   82.574997        1.56052410E-18
   82.717499        1.55937401E-18
   82.860001        1.55948485E-18
   83.002502        1.56064859E-18
   83.144997        1.56250178E-18
   83.287498        1.56459817E-18
   83.430000        1.56648414E-18
   83.572502        1.56778209E-18
   83.714996        1.56826434E-18
   83.857498        1.56789965E-18
   84.000000        1.56686320E-18
   84.142502        1.56550259E-18
   84.285004        1.56425654E-18
   84.427498        1.56355230E-18
   84.570000        1.56370471E-18
   84.712502        1.56484281E-18
   84.855003        1.56688202E-18
   84.997498        1.56954657E-18
   85.139999        1.57243312E-18
   85.282501        1.57509313E-18
   85.425003        1.57711641E-18
   85.567497        1.57820291E-18
   85.709999        1.57821232E-18
   85.852501        1.57718786E-18
   85.995003        1.57535483E-18
   86.137497        1.57308484E-18
   86.279999        1.57083418E-18
   86.422501        1.56906029E-18
   86.565002        1.56812982E-18
   86.707497        1.56824180E-18
   86.849998        1.56938817E-18
   86.992500        1.57135934E-18
   87.135002        1.57380138E-18
   87.277496        1.57630143E-18
   87.419998        1.57848136E-18
   87.562500        1.58007565E-18
   87.705002        1.58097438E-18
   87.847504        1.58123112E-18
   87.989998        1.58103859E-18
   88.132500        1.58068476E-18
   88.275002        1.58049689E-18
   88.417503        1.58078165E-18
   88.559998        1.58176579E-18
   88.702499        1.58354495E-18
   88.845001        1.58604779E-18
   88.987503        1.58903898E-18
   89.129997        1.59215300E-18
   89.272499        1.59496966E-18
   89.415001        1.59711133E-18
   89.557503        1.59833566E-18
   89.699997        1.59859529E-18
   89.842499        1.59805318E-18
   89.985001        1.59704412E-18
   90.127502        1.59599836E-18
   90.269997        1.59534871E-18
   90.412498        1.59544549E-18
   90.555000        1.59649518E-18
   90.697502        1.59852457E-18
   90.839996        1.60138031E-18
   90.982498        1.60474662E-18
   91.125000        1.60819183E-18
   91.267502        1.61123213E-18
   91.410004        1.61341475E-18
   91.552498        1.61440447E-18
   91.695000        1.61405964E-18
   91.837502        1.61247135E-18
   91.980003        1.60995569E-18