  -30.0000000         9.84048302E-18
  -29.8575001         9.85754445E-18
  -29.7150002         9.88337730E-18
  -29.5725002         9.90645398E-18
  -29.4300003         9.91866730E-18
  -29.2875004         9.91985927E-18
  -29.1450005         9.91752993E-18
  -29.0025005         9.92193798E-18
  -28.8600006         9.93959332E-18
  -28.7175007         9.96905832E-18
  -28.5750008         1.00016104E-17
  -28.4325008         1.00263447E-17
  -28.2900009         1.00366679E-17
  -28.1474991         1.00342377E-17
  -28.0049992         1.00279991E-17
  -27.8624992         1.00288767E-17
  -27.7199993         1.00433185E-17
  -27.5774994         1.00695409E-17
  -27.4349995         1.00987189E-17
  -27.2924995         1.01203687E-17
  -27.1499996         1.01286620E-17
  -27.0074997         1.01258843E-17
  -26.8649998         1.01209634E-17
  -26.7224998         1.01240050E-17
  -26.5799999         1.01401466E-17
  -26.4375000         1.01664559E-17
  -26.2950001         1.01937264E-17
  -26.1525002         1.02120790E-17
  -26.0100002         1.02169544E-17
  -25.8675003         1.02118755E-17
  -25.7250004         1.02063111E-17
  -25.5825005         1.02099482E-17
  -25.4400005         1.02268310E-17
  -25.2975006         1.02529310E-17
  -25.1550007         1.02785934E-17
  -25.0125008         1.02943794E-17
  -24.8700008         1.02967658E-17
  -24.7275009         1.02902501E-17
  -24.5849991         1.02845979E-17
  -24.4424992         1.02889125E-17
  -24.2999992         1.03061328E-17
  -24.1574993         1.03312848E-17
  -24.0149994         1.03545543E-17
  -23.8724995         1.03673028E-17
  -23.7299995         1.03673723E-17
  -23.5874996         1.03604363E-17
  -23.4449997         1.03565759E-17
  -23.3024998         1.03641380E-17
  -23.1599998         1.03845958E-17
  -23.0174999         1.04115561E-17
  -22.8750000         1.04345186E-17
  -22.7325001         1.04451570E-17
  -22.5900002         1.04423148E-17
  -22.4475002         1.04327046E-17
  -22.3050003         1.04268730E-17
  -22.1625004         1.04328477E-17
  -22.0200005         1.04513187E-17
  -21.8775005         1.04752515E-17
  -21.7350006         1.04941807E-17
  -21.5925007         1.05005930E-17
  -21.4500008         1.04945322E-17
  -21.3075008         1.04836226E-17
  -21.1650009         1.04784742E-17
  -21.0224991         1.04862331E-17
  -20.8799992         1.05061657E-17
  -20.7374992         1.05299596E-17
  -20.5949993         1.05466115E-17
  -20.4524994         1.05489756E-17
  -20.3099995         1.05380593E-17
  -20.1674995         1.05224777E-17
  -20.0249996         1.05133796E-17
  -19.8824997         1.05178893E-17
  -19.7399998         1.05349888E-17
  -19.5974998         1.05562887E-17
  -19.4549999         1.05712251E-17
  -19.3125000         1.05735321E-17
  -19.1700001         1.05650767E-17
  -19.0275002         1.05547543E-17
  -18.8850002         1.05530784E-17
  -18.7425003         1.05657426E-17
  -18.6000004         1.05900104E-17
  -18.4575005         1.06161377E-17
  -18.3150005         1.06329833E-17
  -18.1725006         1.06344714E-17
  -18.0300007         1.06230488E-17
  -17.8875008         1.06080934E-17
  -17.7450008         1.06002559E-17
  -17.6025009         1.06051404E-17
  -17.4599991         1.06201074E-17
  -17.3174992         1.06361026E-17
  -17.1749992         1.06433594E-17
  -17.0324993         1.06375071E-17
  -16.8899994         1.06223987E-17
  -16.7474995         1.06079354E-17
  -16.6049995         1.06042147E-17
  -16.4624996         1.06155124E-17
  -16.3199997         1.06377404E-17
  -16.1774998         1.06608832E-17
  -16.0349998         1.06749453E-17
  -15.8924999         1.06758329E-17
  -15.7500000         1.06676388E-17
  -15.6075001         1.06599891E-17
  -15.4650002         1.06620860E-17
  -15.3225002         1.06770728E-17
  -15.1800003         1.07001073E-17
  -15.0375004         1.07213022E-17
  -14.8950005         1.07317255E-17
  -14.7524996         1.07288055E-17
  -14.6099997         1.07178751E-17
  -14.4674997         1.07089168E-17
  -14.3249998         1.07104984E-17
  -14.1824999         1.07245712E-17
  -14.0400000         1.07452962E-17
  -13.8975000         1.07626000E-17
  -13.7550001         1.07683075E-17
  -13.6125002         1.07611326E-17
  -13.4700003         1.07475048E-17
  -13.3275003         1.07377250E-17
  -13.1850004         1.07397723E-17
  -13.0424995         1.07545283E-17
  -12.8999996         1.07752856E-17
  -12.7574997         1.07918615E-17
  -12.6149998         1.07967931E-17
  -12.4724998         1.07898796E-17
  -12.3299999         1.07782866E-17
  -12.1875000         1.07721556E-17
  -12.0450001         1.07783809E-17
  -11.9025002         1.07963225E-17
  -11.7600002         1.08180964E-17
  -11.6175003         1.08332726E-17
  -11.4750004         1.08351818E-17
  -11.3325005         1.08250025E-17
  -11.1899996         1.08111505E-17
  -11.0474997         1.08043015E-17
  -10.9049997         1.08110430E-17
  -10.7624998         1.08299548E-17
  -10.6199999         1.08525004E-17
  -10.4775000         1.08681921E-17
  -10.3350000         1.08709176E-17
  -10.1925001         1.08626094E-17
  -10.0500002         1.08520455E-17
  -9.90750027         1.08494821E-17
  -9.76500034         1.08603645E-17
  -9.62250042         1.08819200E-17
  -9.47999954         1.09047063E-17
  -9.33749962         1.09182183E-17
  -9.19499969         1.09171951E-17
  -9.05249977         1.09048304E-17
  -8.90999985         1.08909536E-17
  -8.76749992         1.08862370E-17
  -8.62500000         1.08959026E-17
  -8.48250008         1.09166756E-17
  -8.34000015         1.09388110E-17
  -8.19750023         1.09519615E-17
  -8.05500031         1.09513551E-17
  -7.91249990         1.09405819E-17
  -7.76999998         1.09293290E-17
  -7.62750006         1.09274389E-17
  -7.48500013         1.09388871E-17
  -7.34250021         1.09593151E-17
  -7.19999981         1.09786008E-17
  -7.05749989         1.09869363E-17
  -6.91499996         1.09807548E-17
  -6.77250004         1.09649457E-17
  -6.63000011         1.09500408E-17
  -6.48750019         1.09460356E-17
  -6.34499979         1.09565780E-17
  -6.20249987         1.09769547E-17
  -6.05999994         1.09970825E-17
  -5.91750002         1.10076448E-17
  -5.77500010         1.10056786E-17
  -5.63250017         1.09962562E-17
  -5.48999977         1.09892665E-17
  -5.34749985         1.09932990E-17
  -5.20499992         1.10103091E-17
  -5.06250000         1.10343387E-17
  -4.92000008         1.10550158E-17
  -4.77750015         1.10637558E-17
  -4.63500023         1.10588878E-17
  -4.49249983         1.10466282E-17
  -4.34999990         1.10373290E-17
  -4.20749998         1.10392638E-17
  -4.06500006         1.10537146E-17
  -3.92249990         1.10742998E-17
  -3.77999997         1.10909328E-17
  -3.63750005         1.10959885E-17
  -3.49499989         1.10889302E-17
  -3.35249996         1.10766077E-17
  -3.21000004         1.10690539E-17
  -3.06750011         1.10733535E-17
  -2.92499995         1.10893041E-17
  -2.78250003         1.11095212E-17
  -2.64000010         1.11239191E-17
  -2.49749994         1.11258547E-17
  -2.35500002         1.11161982E-17
  -2.21250010         1.11028640E-17
  -2.06999993         1.10960572E-17
  -1.92750001         1.11021212E-17
  -1.78499997         1.11197038E-17
  -1.64250004         1.11405694E-17
  -1.50000000         1.11545744E-17
  -1.35749996         1.11557961E-17
  -1.21500003         1.11461049E-17
  -1.07249999         1.11340132E-17
 -0.930000007         1.11294860E-17
 -0.787500024         1.11378587E-17
 -0.644999981         1.11565547E-17
 -0.502499998         1.11766014E-17
 -0.360000014         1.11880529E-17
 -0.217500001         1.11860511E-17
  -7.50000030E-02     1.11738411E-17
   6.75000027E-02     1.11609156E-17
  0.209999993         1.11573479E-17
  0.352499992         1.11677448E-17
  0.495000005         1.11884417E-17
  0.637499988         1.12096555E-17
  0.779999971         1.12213196E-17
  0.922500014         1.12190870E-17
   1.06500006         1.12069118E-17
   1.20749998         1.11946405E-17
   1.35000002         1.11920606E-17
   1.49249995         1.12029901E-17
   1.63499999         1.12229731E-17
   1.77750003         1.12419751E-17
   1.91999996         1.12504653E-17
   2.06250000         1.12452218E-17
   2.20499992         1.12313607E-17
   2.34750009         1.12193567E-17
   2.49000001         1.12188190E-17
   2.63249993         1.12327545E-17
   2.77500010         1.12557535E-17
   2.91750002         1.12771841E-17
   3.05999994         1.12874891E-17
   3.20250010         1.12837966E-17
   3.34500003         1.12715088E-17
   3.48749995         1.12609333E-17
   3.63000011         1.12610069E-17
   3.77250004         1.12738845E-17
   3.91499996         1.12936698E-17
   4.05749989         1.13100066E-17
   4.19999981         1.13143824E-17
   4.34250021         1.13053231E-17
   4.48500013         1.12893569E-17
   4.62750006         1.12771725E-17
   4.76999998         1.12772817E-17
   4.91249990         1.12909939E-17
   5.05499983         1.13117156E-17
   5.19750023         1.13289581E-17
   5.34000015         1.13346409E-17
   5.48250008         1.13278787E-17
   5.62500000         1.13154015E-17
   5.76749992         1.13073729E-17
   5.90999985         1.13111862E-17
   6.05249977         1.13269688E-17
   6.19500017         1.13475341E-17
   6.33750010         1.13627658E-17
   6.48000002         1.13657801E-17
   6.62249994         1.13571203E-17
   6.76499987         1.13444446E-17
   6.90749979         1.13379099E-17
   7.05000019         1.13440467E-17
   7.19250011         1.13618286E-17
   7.33500004         1.13833113E-17
   7.47749996         1.13984463E-17
   7.61999989         1.14011412E-17
   7.76249981         1.13929050E-17
   7.90500021         1.13818704E-17
   8.04749966         1.13778089E-17
   8.18999958         1.13861668E-17
   8.33250046         1.14047378E-17
   8.47500038         1.14249996E-17
   8.61750031         1.14373031E-17
   8.76000023         1.14367447E-17
   8.90250015         1.14261618E-17
   9.04500008         1.14144175E-17
   9.18750000         1.14110062E-17
   9.32999992         1.14202309E-17
   9.47249985         1.14385182E-17
   9.61499977         1.14564904E-17
   9.75749969         1.14645835E-17
   9.89999962         1.14588205E-17
   10.0424995         1.14432513E-17
   10.1850004         1.14275713E-17
   10.3275003         1.14213534E-17
   10.4700003         1.14283546E-17
   10.6125002         1.14443556E-17
   10.7550001         1.14598181E-17
   10.8975000         1.14657788E-17
   11.0400000         1.14594004E-17
   11.1824999         1.14458082E-17
   11.3249998         1.14350821E-17
   11.4674997         1.14361880E-17
   11.6099997         1.14515107E-17
   11.7524996         1.14752864E-17
   11.8950005         1.14969097E-17
   12.0375004         1.15071643E-17
   12.1800003         1.15036363E-17
   12.3225002         1.14920765E-17
   12.4650002         1.14828824E-17
   12.6075001         1.14848263E-17
   12.7500000         1.14997734E-17
   12.8924999         1.15215795E-17
   13.0349998         1.15398214E-17
   13.1774998         1.15460964E-17
   13.3199997         1.15391141E-17
   13.4624996         1.15255020E-17
   13.6049995         1.15158340E-17
   13.7475004         1.15182708E-17
   13.8900003         1.15336258E-17
   14.0325003         1.15548314E-17
   14.1750002         1.15711260E-17
   14.3175001         1.15744513E-17
   14.4600000         1.15642323E-17
   14.6025000         1.15476895E-17
   14.7449999         1.15355076E-17
   14.8874998         1.15354820E-17
   15.0299997         1.15479476E-17
   15.1724997         1.15657245E-17
   15.3149996         1.15785773E-17
   15.4575005         1.15794756E-17
   15.6000004         1.15688777E-17
   15.7425003         1.15544592E-17
   15.8850002         1.15464719E-17
   16.0275002         1.15515458E-17
   16.1700001         1.15686701E-17
   16.3125000         1.15897781E-17
   16.4549999         1.16045590E-17
   16.5974998         1.16066013E-17
   16.7399998         1.15971615E-17
   16.8824997         1.15843080E-17
   17.0249996         1.15779809E-17
   17.1674995         1.15839746E-17
   17.3099995         1.16004727E-17
   17.4524994         1.16192059E-17
   17.5949993         1.16305176E-17
   17.7374992         1.16292495E-17
   17.8799992         1.16178601E-17
   18.0224991         1.16049304E-17
   18.1650009         1.15999425E-17
   18.3075008         1.16075302E-17
   18.4500008         1.16246785E-17
   18.5925007         1.16425721E-17
   18.7350006         1.16519713E-17
   18.8775005         1.16488462E-17
   19.0200005         1.16368455E-17
   19.1625004         1.16251136E-17
   19.3050003         1.16227586E-17
   19.4475002         1.16333374E-17
   19.5900002         1.16526885E-17
   19.7325001         1.16714366E-17
   19.8750000         1.16806530E-17
   20.0174999         1.16772343E-17
   20.1599998         1.16657513E-17
   20.3024998         1.16556324E-17
   20.4449997         1.16553959E-17
   20.5874996         1.16674148E-17
   20.7299995         1.16864218E-17
   20.8724995         1.17026626E-17
   21.0149994         1.17078052E-17
   21.1574993         1.17000537E-17
   21.2999992         1.16853332E-17
   21.4424992         1.16738271E-17
   21.5849991         1.16739148E-17
   21.7275009         1.16871670E-17
   21.8700008         1.17074115E-17
   22.0125008         1.17244398E-17
   22.1550007         1.17301407E-17
   22.2975006         1.17233620E-17
   22.4400005         1.17105597E-17
   22.5825005         1.17018470E-17
   22.7250004         1.17048166E-17
   22.8675003         1.17198581E-17
   23.0100002         1.17398179E-17
   23.1525002         1.17542208E-17
   23.2950001         1.17555344E-17
   23.4375000         1.17437164E-17
   23.5799999         1.17263084E-17
   23.7224998         1.17140049E-17
   23.8649998         1.17143374E-17
   24.0074997         1.17272746E-17
   24.1499996         1.17453377E-17
   24.2924995         1.17581772E-17
   24.4349995         1.17588381E-17
   24.5774994         1.17479549E-17
   24.7199993         1.17333585E-17
   24.8624992         1.17253472E-17
   25.0049992         1.17304642E-17
   25.1474991         1.17475330E-17
   25.2900009         1.17683292E-17
   25.4325008         1.17824872E-17
   25.5750008         1.17836841E-17
   25.7175007         1.17733981E-17
   25.8600006         1.17599929E-17
   26.0025005         1.17536889E-17
   26.1450005         1.17604569E-17
   26.2875004         1.17784886E-17
   26.4300003         1.17993402E-17
   26.5725002         1.18130474E-17
   26.7150002         1.18140954E-17
   26.8575001         1.18046656E-17
   27.0000000         1.17932157E-17
   27.1424999         1.17892858E-17
   27.2849998         1.17976784E-17
   27.4274998         1.18155314E-17
   27.5699997         1.18340479E-17
   27.7124996         1.18438061E-17
   27.8549995         1.18404477E-17
   27.9974995         1.18273047E-17
   28.1399994         1.18133882E-17
   28.2824993         1.18079702E-17
   28.4249992         1.18150533E-17
   28.5674992         1.18310328E-17
   28.7099991         1.18469808E-17
   28.8525009         1.18541227E-17
   28.9950008         1.18491877E-17
   29.1375008         1.18363946E-17
   29.2800007         1.18248744E-17
   29.4225006         1.18231117E-17
   29.5650005         1.18337798E-17
   29.7075005         1.18521060E-17
   29.8500004         1.18687630E-17
   29.9925003         1.18755210E-17
   30.1350002         1.18702387E-17
   30.2775002         1.18581593E-17
   30.4200001         1.18487113E-17
   30.5625000         1.18497618E-17
   30.7049999         1.18627949E-17
   30.8474998         1.18819457E-17
   30.9899998         1.18974967E-17
   31.1324997         1.19017121E-17
   31.2749996         1.18935023E-17
   31.4174995         1.18790812E-17
   31.5599995         1.18682129E-17
   31.7024994         1.18683155E-17
   31.8449993         1.18799762E-17
   31.9874992         1.18966174E-17
   32.1300011         1.19085016E-17
   32.2724991         1.19086827E-17
   32.4150009         1.18972833E-17
   32.5574989         1.18815024E-17
   32.7000008         1.18713272E-17
   32.8424988         1.18735011E-17
   32.9850006         1.18874060E-17
   33.1274986         1.19053376E-17
   33.2700005         1.19170472E-17
   33.4124985         1.19158287E-17
   33.5550003         1.19025128E-17
   33.6974983         1.18849616E-17
   33.8400002         1.18733629E-17
   33.9824982         1.18741587E-17
   34.1250000         1.18862529E-17
   34.2675018         1.19017658E-17
   34.4099998         1.19109004E-17
   34.5525017         1.19079680E-17
   34.6949997         1.18949457E-17
   34.8375015         1.18804221E-17
   34.9799995         1.18745292E-17
   35.1225014         1.18829177E-17
   35.2649994         1.19033656E-17
   35.4075012         1.19270734E-17
   35.5499992         1.19438610E-17
   35.6925011         1.19481616E-17
   35.8349991         1.19422232E-17
   35.9775009         1.19346264E-17
   36.1199989         1.19350226E-17
   36.2625008         1.19482525E-17
   36.4049988         1.19714045E-17
   36.5475006         1.19955292E-17
   36.6899986         1.20109917E-17
   36.8325005         1.20132077E-17
   36.9749985         1.20053222E-17
   37.1175003         1.19962381E-17
   37.2599983         1.19951868E-17
   37.4025002         1.20061254E-17
   37.5449982         1.20253292E-17
   37.6875000         1.20436165E-17
   37.8300018         1.20518495E-17
   37.9724998         1.20463984E-17
   38.1150017         1.20312767E-17
   38.2574997         1.20157025E-17
   38.4000015         1.20085581E-17
   38.5424995         1.20131093E-17
   38.6850014         1.20251655E-17
   38.8274994         1.20357459E-17
   38.9700012         1.20366376E-17
   39.1124992         1.20254508E-17
   39.2550011         1.20071147E-17
   39.3974991         1.19909367E-17
   39.5400009         1.19849967E-17
   39.6824989         1.19912990E-17
   39.8250008         1.20046042E-17
   39.9674988         1.20156454E-17
   40.1100006         1.20167712E-17
   40.2524986         1.20066027E-17
   40.3950005         1.19908631E-17
   40.5374985         1.19789054E-17
   40.6800003         1.19780294E-17
   40.8224983         1.19890334E-17
   40.9650002         1.20057093E-17
   41.1074982         1.20185745E-17
   41.2500000         1.20205936E-17
   41.3925018         1.20114144E-17
   41.5349998         1.19975591E-17
   41.6775017         1.19884510E-17
   41.8199997         1.19906844E-17
   41.9625015         1.20040120E-17
   42.1049995         1.20215010E-17
   42.2475014         1.20337557E-17
   42.3899994         1.20346780E-17
   42.5325012         1.20252482E-17
   42.6749992         1.20130348E-17
   42.8175011         1.20076896E-17
   42.9599991         1.20151375E-17
   43.1025009         1.20339576E-17
   43.2449989         1.20561549E-17
   43.3875008         1.20718780E-17
   43.5299988         1.20752504E-17
   43.6725006         1.20678149E-17
   43.8149986         1.20575123E-17
   43.9575005         1.20538074E-17
   44.0999985         1.20618989E-17
   44.2425003         1.20795087E-17
   44.3849983         1.20982096E-17
   44.5275002         1.21084865E-17
   44.6699982         1.21055112E-17
   44.8125000         1.20921332E-17
   44.9550018         1.20772878E-17
   45.0974998         1.20707315E-17
   45.2400017         1.20772720E-17
   45.3824997         1.20939356E-17
   45.5250015         1.21117754E-17
   45.6674995         1.21212375E-17
   45.8100014         1.21178651E-17
   45.9524994         1.21049255E-17
   46.0950012         1.20913970E-17
   46.2374992         1.20865232E-17
   46.3800011         1.20942276E-17
   46.5224991         1.21107323E-17
   46.6650009         1.21268169E-17
   46.8074989         1.21333557E-17
   46.9500008         1.21267995E-17
   47.0924988         1.21113254E-17
   47.2350006         1.20963543E-17
   47.3774986         1.20909520E-17
   47.5200005         1.20984528E-17
   47.6624985         1.21145423E-17
   47.8050003         1.21299254E-17
   47.9474983         1.21359506E-17
   48.0900002         1.21298046E-17
   48.2324982         1.21161677E-17
   48.3750000         1.21043465E-17
   48.5175018         1.21026417E-17
   48.6599998         1.21133479E-17
   48.8025017         1.21313936E-17
   48.9449997         1.21474343E-17
   49.0875015         1.21534901E-17
   49.2299995         1.21477453E-17
   49.3725014         1.21355999E-17
   49.5149994         1.21263602E-17
   49.6575012         1.21275853E-17
   49.7999992         1.21405050E-17
   49.9425011         1.21592688E-17
   50.0849991         1.21744782E-17
   50.2275009         1.21788366E-17
   50.3699989         1.21715210E-17
   50.5125008         1.21586170E-17
   50.6549988         1.21493939E-17
   50.7975006         1.21506703E-17
   50.9399986         1.21626925E-17
   51.0825005         1.21790268E-17
   51.2249985         1.21905048E-17
   51.3675003         1.21908290E-17
   51.5099983         1.21804306E-17
   51.6525002         1.21662270E-17
   51.7949982         1.21574292E-17
   51.9375000         1.21599281E-17
   52.0800018         1.21726791E-17
   52.2224998         1.21882797E-17
   52.3650017         1.21974084E-17
   52.5074997         1.21944471E-17
   52.6500015         1.21808921E-17
   52.7924995         1.21644842E-17
   52.9350014         1.21545704E-17
   53.0774994         1.21565110E-17
   53.2200012         1.21684943E-17
   53.3624992         1.21827061E-17
   53.5050011         1.21901458E-17
   53.6474991         1.21861687E-17
   53.7900009         1.21733979E-17
   53.9324989         1.21602184E-17
   54.0750008         1.21557326E-17
   54.2174988         1.21642253E-17
   54.3600006         1.21824729E-17
   54.5024986         1.22015419E-17
   54.6450005         1.22120429E-17
   54.7874985         1.22096772E-17
   54.9300003         1.21977600E-17
   55.0724983         1.21852009E-17
   55.2150002         1.21811361E-17
   55.3574982         1.21894559E-17
   55.5000000         1.22065016E-17
   55.6425018         1.22233224E-17
   55.7849998         1.22311367E-17
   55.9275017         1.22267022E-17
   56.0699997         1.22143557E-17
   56.2125015         1.22034659E-17
   56.3549995         1.22028347E-17
   56.4975014         1.22153823E-17
   56.6399994         1.22363223E-17
   56.7825012         1.22559331E-17
   56.9249992         1.22652720E-17
   57.0675011         1.22614165E-17
   57.2099991         1.22491205E-17
   57.3525009         1.22378816E-17
   57.4949989         1.22362123E-17
   57.6375008         1.22465446E-17
   57.7799988         1.22638162E-17
   57.9225006         1.22785722E-17
   58.0649986         1.22826974E-17
   58.2075005         1.22743164E-17
   58.3499985         1.22589259E-17
   58.4925003         1.22460789E-17
   58.6349983         1.22436346E-17
   58.7775002         1.22530372E-17
   58.9199982         1.22684690E-17
   59.0625000         1.22803730E-17
   59.2050018         1.22812267E-17
   59.3474998         1.22700903E-17
   59.4900017         1.22532018E-17
   59.6324997         1.22402746E-17
   59.7750015         1.22387336E-17
   59.9174995         1.22493661E-17
   60.0600014         1.22659668E-17
   60.2024994         1.22791719E-17
   60.3450012         1.22821357E-17
   60.4874992         1.22746051E-17
   60.6300011         1.22629551E-17
   60.7724991         1.22561813E-17
   60.9150009         1.22602998E-17
   61.0574989         1.22745803E-17
   61.2000008         1.22918923E-17
   61.3424988         1.23029658E-17
   61.4850006         1.23019955E-17
   61.6274986         1.22901900E-17
   61.7700005         1.22751130E-17
   61.9124985         1.22662125E-17
   62.0550003         1.22692309E-17
   62.1974983         1.22828587E-17
   62.3400002         1.22996455E-17
   62.4824982         1.23105866E-17
   62.6250000         1.23106048E-17
   62.7675018         1.23015827E-17
   62.9099998         1.22911255E-17
   63.0525017         1.22877994E-17
   63.1949997         1.22957594E-17
   63.3375015         1.23120408E-17
   63.4799995         1.23282039E-17
   63.6225014         1.23353466E-17
   63.7649994         1.23294860E-17
   63.9075012         1.23140368E-17
   64.0500031         1.22978670E-17
   64.1924973         1.22900808E-17
   64.3349991         1.22946501E-17
   64.4775009         1.23081241E-17
   64.6200027         1.23218015E-17
   64.7624969         1.23270525E-17
   64.9049988         1.23205748E-17
   65.0475006         1.23064118E-17
   65.1900024         1.22935012E-17
   65.3324966         1.22902313E-17
   65.4749985         1.22992972E-17
   65.6175003         1.23159815E-17
   65.7600021         1.23309204E-17
   65.9024963         1.23357271E-17
   66.0449982         1.23280806E-17
   66.1875000         1.23132228E-17
   66.3300018         1.23009152E-17
   66.4725037         1.22996918E-17
   66.6149979         1.23117984E-17
   66.7574997         1.23318873E-17
   66.9000015         1.23502210E-17
   67.0425034         1.23584828E-17
   67.1849976         1.23546952E-17
   67.3274994         1.23443099E-17
   67.4700012         1.23368190E-17
   67.6125031         1.23399391E-17
   67.7549973         1.23548705E-17
   67.8974991         1.23754988E-17
   68.0400009         1.23920043E-17
   68.1825027         1.23967333E-17
   68.3249969         1.23887883E-17
   68.4674988         1.23745723E-17
   68.6100006         1.23639712E-17
   68.7525024         1.23644443E-17
   68.8949966         1.23765749E-17
   69.0374985         1.23937406E-17
   69.1800003         1.24060830E-17
   69.3225021         1.24063948E-17
   69.4649963         1.23943850E-17
   69.6074982         1.23767892E-17
   69.7500000         1.23632879E-17
   69.8925018         1.23607088E-17
   70.0350037         1.23690244E-17
   70.1774979         1.23815297E-17
   70.3199997         1.23890745E-17
   70.4625015         1.23857649E-17
   70.6050034         1.23726723E-17
   70.7474976         1.23573033E-17
   70.8899994         1.23491365E-17
   71.0325012         1.23539358E-17
   71.1750031         1.23702520E-17
   71.3174973         1.23902185E-17
   71.4599991         1.24041647E-17
   71.6025009         1.24062633E-17
   71.7450027         1.23978070E-17
   71.8874969         1.23861934E-17
   72.0299988         1.23802534E-17
   72.1725006         1.23847913E-17
   72.3150024         1.23976532E-17
   72.4574966         1.24110990E-17
   72.5999985         1.24166270E-17
   72.7425003         1.24103041E-17
   72.8850021         1.23953379E-17
   73.0274963         1.23803014E-17
   73.1699982         1.23740620E-17
   73.3125000         1.23804718E-17
   73.4550018         1.23960244E-17
   73.5975037         1.24119096E-17
   73.7399979         1.24192335E-17
   73.8824997         1.24142654E-17
   74.0250015         1.24005475E-17
   74.1675034         1.23866136E-17
   74.3099976         1.23807075E-17
   74.4524994         1.23857269E-17
   74.5950012         1.23974563E-17
   74.7375031         1.24071790E-17
   74.8799973         1.24070954E-17
   75.0224991         1.23952370E-17
   75.1650009         1.23768826E-17
   75.3075027         1.23615782E-17
   75.4499969         1.23575093E-17
   75.5924988         1.23666223E-17
   75.7350006         1.23834265E-17
   75.8775024         1.23982380E-17
   76.0199966         1.24029206E-17
   76.1624985         1.23957002E-17
   76.3050003         1.23821543E-17
   76.4475021         1.23717814E-17
   76.5899963         1.23722347E-17
   76.7324982         1.23846714E-17
   76.8750000         1.24030555E-17
   77.0175018         1.24178115E-17
   77.1600037         1.24216472E-17
   77.3024979         1.24140156E-17
   77.4449997         1.24015128E-17
   77.5875015         1.23939391E-17
   77.7300034         1.23983844E-17
   77.8724976         1.24148808E-17
   78.0149994         1.24362444E-17
   78.1575012         1.24522280E-17
   78.3000031         1.24555053E-17
   78.4424973         1.24459225E-17
   78.5849991         1.24304881E-17
   78.7275009         1.24191160E-17
   78.8700027         1.24186958E-17
   79.0124969         1.24290504E-17
   79.1549988         1.24431803E-17
   79.2975006         1.24516424E-17
   79.4400024         1.24483750E-17
   79.5824966         1.24344726E-17
   79.7249985         1.24176072E-17
   79.8675003         1.24074561E-17
   80.0100021         1.24098830E-17
   80.1524963         1.24233826E-17
   80.2949982         1.24399246E-17
   80.4375000         1.24496952E-17
   80.5800018         1.24469018E-17
   80.7225037         1.24331533E-17
   80.8649979         1.24164186E-17
   81.0074997         1.24062161E-17
   81.1500015         1.24079474E-17
   81.2925034         1.24197670E-17
   81.4349976         1.24338580E-17
   81.5774994         1.24412935E-17
   81.7200012         1.24375117E-17
   81.8625031         1.24250816E-17
   82.0049973         1.24120932E-17
   82.1474991         1.24071575E-17
   82.2900009         1.24140644E-17
   82.4325027         1.24293515E-17
   82.5749969         1.24442722E-17
   82.7174988         1.24499814E-17
   82.8600006         1.24428189E-17
   83.0025024         1.24265160E-17
   83.1449966         1.24099773E-17
   83.2874985         1.24020107E-17
   83.4300003         1.24061682E-17
   83.5725021         1.24188033E-17
   83.7149963         1.24315006E-17
   83.8574982         1.24363545E-17
   84.0000000         1.24308760E-17
   84.1425018         1.24195428E-17
   84.2850037         1.24110171E-17
   84.4274979         1.24127583E-17
   84.5699997         1.24262910E-17
   84.7125015         1.24460457E-17
   84.8550034         1.24625173E-17
   84.9974976         1.24678510E-17
   85.1399994         1.24605189E-17
   85.2825012         1.24462376E-17