  -30.0000000         9.78447028E-19
  -29.8575001         9.80199307E-19
  -29.7150002         9.83397394E-19
  -29.5725002         9.87513134E-19
  -29.4300003         9.91905360E-19
  -29.2875004         9.95947895E-19
  -29.1450005         9.99148670E-19
  -29.0025005         1.00123947E-18
  -28.8600006         1.00221565E-18
  -28.7175007         1.00232742E-18
  -28.5750008         1.00202147E-18
  -28.4325008         1.00184724E-18
  -28.2900009         1.00234541E-18
  -28.1474991         1.00393484E-18
  -28.0049992         1.00682098E-18
  -27.8624992         1.01094664E-18
  -27.7199993         1.01599317E-18
  -27.5774994         1.02143933E-18
  -27.4349995         1.02666463E-18
  -27.2924995         1.03107743E-18
  -27.1499996         1.03423860E-18
  -27.0074997         1.03595211E-18
  -26.8649998         1.03630366E-18
  -26.7224998         1.03563964E-18
  -26.5799999         1.03449420E-18
  -26.4375000         1.03348018E-18
  -26.2950001         1.03316916E-18
  -26.1525002         1.03398280E-18
  -26.0100002         1.03611641E-18
  -25.8675003         1.03950299E-18
  -25.7250004         1.04382862E-18
  -25.5825005         1.04859122E-18
  -25.4400005         1.05320244E-18
  -25.2975006         1.05710063E-18
  -25.1550007         1.05986859E-18
  -25.0125008         1.06132339E-18
  -24.8700008         1.06155283E-18
  -24.7275009         1.06090205E-18
  -24.5849991         1.05989619E-18
  -24.4424992         1.05912940E-18
  -24.2999992         1.05913963E-18
  -24.1574993         1.06029593E-18
  -24.0149994         1.06272660E-18
  -23.8724995         1.06629743E-18
  -23.7299995         1.07064541E-18
  -23.5874996         1.07525187E-18
  -23.4449997         1.07954918E-18
  -23.3024998         1.08302923E-18
  -23.1599998         1.08534585E-18
  -23.0174999         1.08638055E-18
  -22.8750000         1.08627188E-18
  -22.7325001         1.08538980E-18
  -22.5900002         1.08426276E-18
  -22.4475002         1.08347219E-18
  -22.3050003         1.08352802E-18
  -22.1625004         1.08475866E-18
  -22.0200005         1.08724227E-18
  -21.8775005         1.09078860E-18
  -21.7350006         1.09498209E-18
  -21.5925007         1.09927227E-18
  -21.4500008         1.10309239E-18
  -21.3075008         1.10597719E-18
  -21.1650009         1.10765740E-18
  -21.0224991         1.10811017E-18
  -20.8799992         1.10756361E-18
  -20.7374992         1.10645199E-18
  -20.5949993         1.10533074E-18
  -20.4524994         1.10476929E-18
  -20.3099995         1.10523624E-18
  -20.1674995         1.10700392E-18
  -20.0249996         1.11008641E-18
  -19.8824997         1.11423100E-18
  -19.7399998         1.11896485E-18
  -19.5974998         1.12369271E-18
  -19.4549999         1.12782075E-18
  -19.3125000         1.13088701E-18
  -19.1700001         1.13266069E-18
  -19.0275002         1.13319174E-18
  -18.8850002         1.13280058E-18
  -18.7425003         1.13201021E-18
  -18.6000004         1.13144070E-18
  -18.4575005         1.13168224E-18
  -18.3150005         1.13317974E-18
  -18.1725006         1.13614322E-18
  -18.0300007         1.14050174E-18
  -17.8875008         1.14590881E-18
  -17.7450008         1.15179948E-18
  -17.6025009         1.15748645E-18
  -17.4599991         1.16229050E-18
  -17.3174992         1.16566964E-18
  -17.1749992         1.16732710E-18
  -17.0324993         1.16727427E-18
  -16.8899994         1.16583053E-18
  -16.7474995         1.16355868E-18
  -16.6049995         1.16115365E-18
  -16.4624996         1.15930304E-18
  -16.3199997         1.15855465E-18
  -16.1774998         1.15921680E-18
  -16.0349998         1.16130895E-18
  -15.8924999         1.16456990E-18
  -15.7500000         1.16852000E-18
  -15.6075001         1.17255912E-18
  -15.4650002         1.17608136E-18
  -15.3225002         1.17859413E-18
  -15.1800003         1.17980936E-18
  -15.0375004         1.17969986E-18
  -14.8950005         1.17850366E-18
  -14.7524996         1.17667238E-18
  -14.6099997         1.17477742E-18
  -14.4674997         1.17338692E-18
  -14.3249998         1.17294128E-18
  -14.1824999         1.17365617E-18
  -14.0400000         1.17547494E-18
  -13.8975000         1.17808283E-18
  -13.7550001         1.18097589E-18
  -13.6125002         1.18356941E-18
  -13.4700003         1.18532200E-18
  -13.3275003         1.18584830E-18
  -13.1850004         1.18499878E-18
  -13.0424995         1.18289216E-18
  -12.8999996         1.17989994E-18
  -12.7574997         1.17658212E-18
  -12.6149998         1.17358752E-18
  -12.4724998         1.17153600E-18
  -12.3299999         1.17090197E-18
  -12.1875000         1.17192095E-18
  -12.0450001         1.17454208E-18
  -11.9025002         1.17843738E-18
  -11.7600002         1.18306566E-18
  -11.6175003         1.18778214E-18
  -11.4750004         1.19196881E-18
  -11.3325005         1.19515573E-18
  -11.1899996         1.19710664E-18
  -11.0474997         1.19785420E-18
  -10.9049997         1.19768029E-18
  -10.7624998         1.19704512E-18
  -10.6199999         1.19648687E-18
  -10.4775000         1.19650900E-18
  -10.3350000         1.19747804E-18
  -10.1925001         1.19955003E-18
  -10.0500002         1.20263386E-18
  -9.90750027         1.20640477E-18
  -9.76500034         1.21036376E-18
  -9.62250042         1.21393191E-18
  -9.47999954         1.21656865E-18
  -9.33749962         1.21788138E-18
  -9.19499969         1.21770964E-18
  -9.05249977         1.21615733E-18
  -8.90999985         1.21357167E-18
  -8.76749992         1.21046871E-18
  -8.62500000         1.20742417E-18
  -8.48250008         1.20496124E-18
  -8.34000015         1.20345008E-18
  -8.19750023         1.20304528E-18
  -8.05500031         1.20366804E-18
  -7.91249990         1.20503723E-18
  -7.76999998         1.20673357E-18
  -7.62750006         1.20828733E-18
  -7.48500013         1.20927953E-18
  -7.34250021         1.20942946E-18
  -7.19999981         1.20865677E-18
  -7.05749989         1.20710808E-18
  -6.91499996         1.20512905E-18
  -6.77250004         1.20319913E-18
  -6.63000011         1.20182695E-18
  -6.48750019         1.20144086E-18
  -6.34499979         1.20229296E-18
  -6.20249987         1.20440165E-18
  -6.05999994         1.20754504E-18
  -5.91750002         1.21131098E-18
  -5.77500010         1.21518198E-18
  -5.63250017         1.21864342E-18
  -5.48999977         1.22128254E-18
  -5.34749985         1.22286908E-18
  -5.20499992         1.22339372E-18
  -5.06250000         1.22306657E-18
  -4.92000008         1.22227464E-18
  -4.77750015         1.22150464E-18
  -4.63500023         1.22124460E-18
  -4.49249983         1.22187956E-18
  -4.34999990         1.22360516E-18
  -4.20749998         1.22637570E-18
  -4.06500006         1.22989959E-18
  -3.92249990         1.23368912E-18
  -3.77999997         1.23715728E-18
  -3.63750005         1.23973808E-18
  -3.49499989         1.24100356E-18
  -3.35249996         1.24075469E-18
  -3.21000004         1.23906476E-18
  -3.06750011         1.23626351E-18
  -2.92499995         1.23287465E-18
  -2.78250003         1.22951806E-18
  -2.64000010         1.22679508E-18
  -2.49749994         1.22518146E-18
  -2.35500002         1.22494530E-18
  -2.21250010         1.22610273E-18
  -2.06999993         1.22841739E-18
  -1.92750001         1.23145159E-18
  -1.78499997         1.23465288E-18
  -1.64250004         1.23746995E-18
  -1.50000000         1.23946832E-18
  -1.35749996         1.24042206E-18
  -1.21500003         1.24036374E-18
  -1.07249999         1.23957440E-18
 -0.930000007         1.23851923E-18
 -0.787500024         1.23774240E-18
 -0.644999981         1.23774747E-18
 -0.502499998         1.23888515E-18
 -0.360000014         1.24127798E-18
 -0.217500001         1.24479153E-18
  -7.50000030E-02     1.24905813E-18
   6.75000027E-02     1.25354372E-18
  0.209999993         1.25764892E-18
  0.352499992         1.26082209E-18
  0.495000005         1.26266618E-18
  0.637499988         1.26302384E-18
  0.779999971         1.26201323E-18
  0.922500014         1.26001383E-18
   1.06500006         1.25759515E-18
   1.20749998         1.25540674E-18
   1.35000002         1.25404293E-18
   1.49249995         1.25392175E-18
   1.63499999         1.25519798E-18
   1.77750003         1.25773288E-18
   1.91999996         1.26112463E-18
   2.06250000         1.26479317E-18
   2.20499992         1.26809497E-18
   2.34750009         1.27044964E-18
   2.49000001         1.27144960E-18
   2.63249993         1.27093623E-18
   2.77500010         1.26903010E-18
   2.91750002         1.26611222E-18
   3.05999994         1.26275510E-18
   3.20250010         1.25962268E-18
   3.34500003         1.25734255E-18
   3.48749995         1.25639140E-18
   3.63000011         1.25700041E-18
   3.77250004         1.25911230E-18
   3.91499996         1.26239600E-18
   4.05749989         1.26632222E-18
   4.19999981         1.27027418E-18
   4.34250021         1.27367668E-18
   4.48500013         1.27610549E-18
   4.62750006         1.27736156E-18
   4.76999998         1.27749381E-18
   4.91249990         1.27676930E-18
   5.05499983         1.27560380E-18
   5.19750023         1.27446850E-18
   5.34000015         1.27378918E-18
   5.48250008         1.27386021E-18
   5.62500000         1.27478210E-18
   5.76749992         1.27643791E-18
   5.90999985         1.27851331E-18
   6.05249977         1.28056079E-18
   6.19500017         1.28209366E-18
   6.33750010         1.28269812E-18
   6.48000002         1.28213181E-18
   6.62249994         1.28038925E-18
   6.76499987         1.27771601E-18
   6.90749979         1.27456735E-18
   7.05000019         1.27151784E-18
   7.19250011         1.26914962E-18
   7.33500004         1.26793894E-18
   7.47749996         1.26816652E-18
   7.61999989         1.26987062E-18
   7.76249981         1.27284619E-18
   7.90500021         1.27668824E-18
   8.04749966         1.28086819E-18
   8.18999958         1.28483266E-18
   8.33250046         1.28810705E-18
   8.47500038         1.29038211E-18
   8.61750031         1.29157480E-18
   8.76000023         1.29184167E-18
   8.90250015         1.29154440E-18
   9.04500008         1.29116969E-18
   9.18750000         1.29121870E-18
   9.32999992         1.29209396E-18
   9.47249985         1.29400588E-18
   9.61499977         1.29692108E-18
   9.75749969         1.30056481E-18
   9.89999962         1.30447747E-18
   10.0424995         1.30810425E-18
   10.1850004         1.31090374E-18
   10.3275003         1.31245294E-18
   10.4700003         1.31252574E-18
   10.6125002         1.31113721E-18
   10.7550001         1.30854545E-18
   10.8975000         1.30520591E-18
   11.0400000         1.30169443E-18
   11.1824999         1.29860056E-18
   11.3249998         1.29641836E-18
   11.4674997         1.29545335E-18
   11.6099997         1.29576623E-18
   11.7524996         1.29716830E-18
   11.8950005         1.29927099E-18
   12.0375004         1.30157645E-18
   12.1800003         1.30358805E-18
   12.3225002         1.30491836E-18
   12.4650002         1.30536690E-18
   12.6075001         1.30495548E-18
   12.7500000         1.30391716E-18
   12.8924999         1.30264341E-18
   13.0349998         1.30160416E-18
   13.1774998         1.30125199E-18
   13.3199997         1.30192996E-18
   13.4624996         1.30380053E-18
   13.6049995         1.30680144E-18
   13.7475004         1.31064762E-18
   13.8900003         1.31487751E-18
   14.0325003         1.31894000E-18
   14.1750002         1.32230497E-18
   14.3175001         1.32456979E-18
   14.4600000         1.32554597E-18
   14.6025000         1.32529565E-18
   14.7449999         1.32411381E-18
   14.8874998         1.32246307E-18
   15.0299997         1.32087219E-18
   15.1724997         1.31983150E-18
   15.3149996         1.31969677E-18
   15.4575005         1.32062518E-18
   15.6000004         1.32255199E-18
   15.7425003         1.32520528E-18
   15.8850002         1.32815872E-18
   16.0275002         1.33091200E-18
   16.1700001         1.33298863E-18
   16.3125000         1.33403429E-18
   16.4549999         1.33389377E-18
   16.5974998         1.33265518E-18
   16.7399998         1.33064244E-18
   16.8824997         1.32835725E-18
   17.0249996         1.32637977E-18
   17.1674995         1.32524643E-18
   17.3099995         1.32533959E-18
   17.4524994         1.32680980E-18
   17.5949993         1.32954415E-18
   17.7374992         1.33319367E-18
   17.8799992         1.33724137E-18
   18.0224991         1.34109893E-18
   18.1650009         1.34421254E-18
   18.3075008         1.34615766E-18
   18.4500008         1.34671104E-18
   18.5925007         1.34588510E-18
   18.7350006         1.34392696E-18
   18.8775005         1.34127078E-18
   19.0200005         1.33845609E-18
   19.1625004         1.33602418E-18
   19.3050003         1.33441211E-18
   19.4475002         1.33386575E-18
   19.5900002         1.33439701E-18
   19.7325001         1.33578926E-18
   19.8750000         1.33765465E-18
   20.0174999         1.33952718E-18
   20.1599998         1.34096772E-18
   20.3024998         1.34165573E-18
   20.4449997         1.34145503E-18
   20.5874996         1.34043409E-18
   20.7299995         1.33884631E-18
   20.8724995         1.33707687E-18
   21.0149994         1.33556303E-18
   21.1574993         1.33470844E-18
   21.2999992         1.33480130E-18
   21.4424992         1.33595397E-18
   21.5849991         1.33807476E-18
   21.7275009         1.34088490E-18
   21.8700008         1.34397431E-18
   22.0125008         1.34689116E-18
   22.1550007         1.34924077E-18
   22.2975006         1.35077694E-18
   22.4400005         1.35145358E-18
   22.5825005         1.35143610E-18
   22.7250004         1.35106077E-18
   22.8675003         1.35076030E-18
   23.0100002         1.35096502E-18
   23.1525002         1.35201492E-18
   23.2950001         1.35408277E-18
   23.4375000         1.35713569E-18
   23.5799999         1.36093307E-18
   23.7224998         1.36506122E-18
   23.8649998         1.36900532E-18
   24.0074997         1.37224135E-18
   24.1499996         1.37433825E-18
   24.2924995         1.37504436E-18
   24.4349995         1.37434591E-18
   24.5774994         1.37247493E-18
   24.7199993         1.36986652E-18
   24.8624992         1.36706909E-18
   25.0049992         1.36463263E-18
   25.1474991         1.36299709E-18
   25.2900009         1.36240793E-18
   25.4325008         1.36287922E-18
   25.5750008         1.36420178E-18
   25.7175007         1.36599924E-18
   25.8600006         1.36781180E-18
   26.0025005         1.36919092E-18
   26.1450005         1.36979238E-18
   26.2875004         1.36944548E-18
   26.4300003         1.36819406E-18
   26.5725002         1.36629702E-18
   26.7150002         1.36418575E-18
   26.8575001         1.36238746E-18
   27.0000000         1.36141707E-18
   27.1424999         1.36166791E-18
   27.2849998         1.36332310E-18
   27.4274998         1.36630964E-18
   27.5699997         1.37030771E-18
   27.7124996         1.37481378E-18
   27.8549995         1.37924302E-18
   27.9974995         1.38304454E-18
   28.1399994         1.38580701E-18
   28.2824993         1.38732664E-18
   28.4249992         1.38763260E-18
   28.5674992         1.38696827E-18
   28.7099991         1.38573360E-18
   28.8525009         1.38440008E-18
   28.9950008         1.38341811E-18
   29.1375008         1.38312601E-18
   29.2800007         1.38368147E-18
   29.4225006         1.38502305E-18
   29.5650005         1.38688048E-18
   29.7075005         1.38882725E-18
   29.8500004         1.39037336E-18
   29.9925003         1.39107977E-18
   30.1350002         1.39066008E-18
   30.2775002         1.38905628E-18
   30.4200001         1.38646327E-18
   30.5625000         1.38329445E-18
   30.7049999         1.38010432E-18
   30.8474998         1.37748113E-18
   30.9899998         1.37593326E-18
   31.1324997         1.37579440E-18
   31.2749996         1.37716421E-18
   31.4174995         1.37988667E-18
   31.5599995         1.38357714E-18
   31.7024994         1.38768843E-18
   31.8449993         1.39160823E-18
   31.9874992         1.39476941E-18
   32.1300011         1.39676023E-18
   32.2724991         1.39740356E-18
   32.4150009         1.39679300E-18
   32.5574989         1.39527750E-18
   32.7000008         1.39338967E-18
   32.8424988         1.39173696E-18
   32.9850006         1.39088145E-18
   33.1274986         1.39123011E-18
   33.2700005         1.39295902E-18
   33.4124985         1.39598598E-18
   33.5550003         1.39999285E-18
   33.6974983         1.40448568E-18
   33.8400002         1.40888835E-18
   33.9824982         1.41264199E-18
   34.1250000         1.41530468E-18
   34.2675018         1.41662476E-18
   34.4099998         1.41658402E-18
   34.5525017         1.41539557E-18
   34.6949997         1.41345707E-18
   34.8375015         1.41126711E-18
   34.9799995         1.40931745E-18
   35.1225014         1.40799241E-18
   35.2649994         1.40749289E-18
   35.4075012         1.40780040E-18
   35.5499992         1.40869696E-18
   35.6925011         1.40982379E-18
   35.8349991         1.41076905E-18
   35.9775009         1.41116165E-18
   36.1199989         1.41075178E-18
   36.2625008         1.40946479E-18
   36.4049988         1.40742114E-18
   36.5475006         1.40492026E-18
   36.6899986         1.40239436E-18
   36.8325005         1.40033582E-18
   36.9749985         1.39920847E-18
   37.1175003         1.39936078E-18
   37.2599983         1.40095031E-18
   37.4025002         1.40390655E-18
   37.5449982         1.40793699E-18
   37.6875000         1.41257974E-18
   37.8300018         1.41729323E-18
   37.9724998         1.42156220E-18
   38.1150017         1.42499304E-18
   38.2574997         1.42737987E-18
   38.4000015         1.42872724E-18
   38.5424995         1.42922469E-18
   38.6850014         1.42919325E-18
   38.8274994         1.42900714E-18
   38.9700012         1.42901489E-18
   39.1124992         1.42947046E-18
   39.2550011         1.43048490E-18
   39.3974991         1.43200432E-18
   39.5400009         1.43381885E-18
   39.6824989         1.43560597E-18
   39.8250008         1.43699812E-18
   39.9674988         1.43766844E-18
   40.1100006         1.43741264E-18
   40.2524986         1.43620816E-18
   40.3950005         1.43423657E-18
   40.5374985         1.43185553E-18
   40.6800003         1.42952971E-18
   40.8224983         1.42773514E-18
   40.9650002         1.42686309E-18
   41.1074982         1.42713998E-18
   41.2500000         1.42858827E-18
   41.3925018         1.43102205E-18
   41.5349998         1.43408830E-18
   41.6775017         1.43733126E-18
   41.8199997         1.44027541E-18
   41.9625015         1.44250859E-18
   42.1049995         1.44375236E-18
   42.2475014         1.44391169E-18
   42.3899994         1.44308813E-18
   42.5325012         1.44155774E-18
   42.6749992         1.43970930E-18
   42.8175011         1.43795827E-18
   42.9599991         1.43665649E-18
   43.1025009         1.43601387E-18
   43.2449989         1.43605658E-18
   43.3875008         1.43663023E-18
   43.5299988         1.43744510E-18
   43.6725006         1.43815183E-18
   43.8149986         1.43842841E-18
   43.9575005         1.43805732E-18
   44.0999985         1.43697692E-18
   44.2425003         1.43530115E-18
   44.3849983         1.43330238E-18
   44.5275002         1.43136564E-18
   44.6699982         1.42991745E-18
   44.8125000         1.42934349E-18
   44.9550018         1.42990980E-18
   45.0974998         1.43169992E-18
   45.2400017         1.43458730E-18
   45.3824997         1.43824871E-18
   45.5250015         1.44222197E-18
   45.6674995         1.44599825E-18
   45.8100014         1.44912241E-18
   45.9524994         1.45128332E-18
   46.0950012         1.45237209E-18
   46.2374992         1.45249421E-18
   46.3800011         1.45193524E-18
   46.5224991         1.45109813E-18
   46.6650009         1.45041685E-18
   46.8074989         1.45027385E-18
   46.9500008         1.45093146E-18
   47.0924988         1.45248428E-18
   47.2350006         1.45484381E-18
   47.3774986         1.45775301E-18
   47.5200005         1.46083446E-18
   47.6624985         1.46366156E-18
   47.8050003         1.46584852E-18
   47.9474983         1.46713169E-18
   48.0900002         1.46743112E-18
   48.2324982         1.46686978E-18
   48.3750000         1.46574533E-18
   48.5175018         1.46446010E-18
   48.6599998         1.46342767E-18
   48.8025017         1.46298131E-18
   48.9449997         1.46330039E-18
   49.0875015         1.46438038E-18
   49.2299995         1.46603815E-18
   49.3725014         1.46795256E-18
   49.5149994         1.46973027E-18
   49.6575012         1.47097921E-18
   49.7999992         1.47137853E-18
   49.9425011         1.47074285E-18
   50.0849991         1.46906377E-18
   50.2275009         1.46652226E-18
   50.3699989         1.46346810E-18
   50.5125008         1.46036431E-18
   50.6549988         1.45770028E-18
   50.7975006         1.45589599E-18
   50.9399986         1.45521449E-18
   51.0825005         1.45570811E-18
   51.2249985         1.45721162E-18
   51.3675003         1.45938193E-18
   51.5099983         1.46177290E-18
   51.6525002         1.46393019E-18
   51.7949982         1.46547763E-18
   51.9375000         1.46618508E-18
   52.0800018         1.46600300E-18
   52.2224998         1.46506704E-18
   52.3650017         1.46366828E-18
   52.5074997         1.46220221E-18
   52.6500015         1.46109482E-18
   52.7924995         1.46072486E-18
   52.9350014         1.46134318E-18
   53.0774994         1.46301967E-18
   53.2200012         1.46561857E-18
   53.3624992         1.46882027E-18
   53.5050011         1.47218348E-18
   53.6474991         1.47523588E-18
   53.7900009         1.47757174E-18
   53.9324989         1.47893442E-18
   54.0750008         1.47926270E-18
   54.2174988         1.47869743E-18
   54.3600006         1.47754641E-18
   54.5024986         1.47622261E-18
   54.6450005         1.47516454E-18
   54.7874985         1.47475581E-18
   54.9300003         1.47525512E-18
   55.0724983         1.47674507E-18
   55.2150002         1.47911329E-18
   55.3574982         1.48206550E-18
   55.5000000         1.48517673E-18
   55.6425018         1.48797260E-18
   55.7849998         1.49002825E-18
   55.9275017         1.49105654E-18
   56.0699997         1.49097175E-18
   56.2125015         1.48990438E-18
   56.3549995         1.48817082E-18
   56.4975014         1.48620306E-18
   56.6399994         1.48445481E-18
   56.7825012         1.48331351E-18
   56.9249992         1.48302762E-18
   57.0675011         1.48366682E-18
   57.2099991         1.48511252E-18
   57.3525009         1.48708525E-18
   57.4949989         1.48919321E-18
   57.6375008         1.49100660E-18
   57.7799988         1.49214232E-18
   57.9225006         1.49234570E-18
   58.0649986         1.49155430E-18
   58.2075005         1.48992454E-18
   58.3499985         1.48780913E-18
   58.4925003         1.48568979E-18
   58.6349983         1.48407421E-18
   58.7775002         1.48338568E-18
   58.9199982         1.48387217E-18
   59.0625000         1.48555693E-18
   59.2050018         1.48823989E-18
   59.3474998         1.49154520E-18
   59.4900017         1.49499826E-18
   59.6324997         1.49811797E-18
   59.7750015         1.50050098E-18
   59.9174995         1.50189002E-18
   60.0600014         1.50221645E-18
   60.2024994         1.50161457E-18
   60.3450012         1.50039892E-18
   60.4874992         1.49901092E-18
   60.6300011         1.49793072E-18
   60.7724991         1.49757938E-18
   60.9150009         1.49822023E-18
   61.0574989         1.49989579E-18
   61.2000008         1.50240877E-18
   61.3424988         1.50536346E-18
   61.4850006         1.50825238E-18
   61.6274986         1.51056632E-18
   61.7700005         1.51190304E-18
   61.9124985         1.51204563E-18
   62.0550003         1.51100007E-18
   62.1974983         1.50898485E-18
   62.3400002         1.50638854E-18
   62.4824982         1.50369503E-18
   62.6250000         1.50140023E-18
   62.7675018         1.49992764E-18
   62.9099998         1.49955313E-18
   63.0525017         1.50035084E-18
   63.1949997         1.50217457E-18
   63.3375015         1.50468072E-18
   63.4799995         1.50739367E-18
   63.6225014         1.50980449E-18
   63.7649994         1.51147808E-18
   63.9075012         1.51214634E-18
   64.0500031         1.51176056E-18
   64.1924973         1.51049591E-18
   64.3349991         1.50870496E-18
   64.4775009         1.50684049E-18
   64.6200027         1.50536397E-18
   64.7624969         1.50465901E-18
   64.9049988         1.50497044E-18
   65.0475006         1.50636569E-18
   65.1900024         1.50872657E-18
   65.3324966         1.51177183E-18
   65.4749985         1.51510785E-18
   65.6175003         1.51829611E-18
   65.7600021         1.52093978E-18
   65.9024963         1.52275824E-18
   66.0449982         1.52364622E-18
   66.1875000         1.52368695E-18
   66.3300018         1.52312654E-18
   66.4725037         1.52230825E-18
   66.6149979         1.52158550E-18
   66.7574997         1.52124108E-18
   66.9000015         1.52142916E-18
   67.0425034         1.52214985E-18
   67.1849976         1.52326406E-18
   67.3274994         1.52452592E-18
   67.4700012         1.52563879E-18
   67.6125031         1.52631025E-18
   67.7549973         1.52631160E-18
   67.8974991         1.52552402E-18
   68.0400009         1.52397492E-18
   68.1825027         1.52184730E-18
   68.3249969         1.51946141E-18
   68.4674988         1.51722192E-18
   68.6100006         1.51553571E-18
   68.7525024         1.51472662E-18
   68.8949966         1.51496051E-18
   69.0374985         1.51620697E-18
   69.1800003         1.51824876E-18
   69.3225021         1.52073144E-18
   69.4649963         1.52324079E-18
   69.6074982         1.52538402E-18
   69.7500000         1.52686012E-18
   69.8925018         1.52750532E-18
   70.0350037         1.52731001E-18
   70.1774979         1.52641365E-18
   70.3199997         1.52508199E-18
   70.4625015         1.52366152E-18
   70.6050034         1.52252321E-18
   70.7474976         1.52199227E-18
   70.8899994         1.52227992E-18
   71.0325012         1.52343115E-18
   71.1750031         1.52530575E-18
   71.3174973         1.52760407E-18
   71.4599991         1.52993082E-18
   71.6025009         1.53188669E-18
   71.7450027         1.53315921E-18
   71.8874969         1.53358789E-18
   72.0299988         1.53319095E-18
   72.1725006         1.53215036E-18
   72.3150024         1.53076576E-18
   72.4574966         1.52939078E-18
   72.5999985         1.52837014E-18
   72.7425003         1.52798044E-18
   72.8850021         1.52838958E-18
   73.0274963         1.52962725E-18
   73.1699982         1.53157567E-18
   73.3125000         1.53399032E-18
   73.4550018         1.53654217E-18
   73.5975037         1.53888619E-18
   73.7399979         1.54073815E-18
   73.8824997         1.54194252E-18
   74.0250015         1.54250873E-18
   74.1675034         1.54260613E-18
   74.3099976         1.54251400E-18
   74.4524994         1.54254678E-18
   74.5950012         1.54297277E-18
   74.7375031         1.54394616E-18
   74.8799973         1.54547282E-18
   75.0224991         1.54740956E-18
   75.1650009         1.54949302E-18
   75.3075027         1.55138851E-18
   75.4499969         1.55275077E-18
   75.5924988         1.55328627E-18
   75.7350006         1.55281808E-18
   75.8775024         1.55132978E-18
   76.0199966         1.54898896E-18
   76.1624985         1.54613415E-18
   76.3050003         1.54322062E-18
   76.4475021         1.54073432E-18
   76.5899963         1.53909019E-18
   76.7324982         1.53854364E-18
   76.8750000         1.53913455E-18
   77.0175018         1.54068365E-18
   77.1600037         1.54283660E-18
   77.3024979         1.54514340E-18
   77.4449997         1.54715169E-18
   77.5875015         1.54849327E-18
   77.7300034         1.54894791E-18
   77.8724976         1.54847931E-18
   78.0149994         1.54724278E-18
   78.1575012         1.54556102E-18
   78.3000031         1.54387233E-18
   78.4424973         1.54265669E-18
   78.5849991         1.54233946E-18
   78.7275009         1.54320397E-18
   78.8700027         1.54532011E-18
   79.0124969         1.54852129E-18
   79.1549988         1.55243210E-18
   79.2975006         1.55655156E-18
   79.4400024         1.56035980E-18
   79.5824966         1.56342812E-18
   79.7249985         1.56550445E-18
   79.8675003         1.56654721E-18
   80.0100021         1.56671430E-18
   80.1524963         1.56631095E-18
   80.2949982         1.56571445E-18
   80.4375000         1.56529600E-18
   80.5800018         1.56534822E-18
   80.7225037         1.56602671E-18
   80.8649979         1.56731194E-18
   81.0074997         1.56900218E-18
   81.1500015         1.57073906E-18
   81.2925034         1.57207309E-18
   81.4349976         1.57255451E-18
   81.5774994         1.57184282E-18
   81.7200012         1.56979224E-18
   81.8625031         1.56650358E-18
   82.0049973         1.56231660E-18
   82.1474991         1.55774477E-18
   82.2900009         1.55337426E-18
   82.4325027         1.54974842E-18
   82.5749969         1.54727142E-18
   82.7174988         1.54614232E-18
   82.8600006         1.54634012E-18
   83.0025024         1.54763911E-18
   83.1449966         1.54966198E-18
   83.2874985         1.55194779E-18
   83.4300003         1.55403466E-18
   83.5725021         1.55554085E-18
   83.7149963         1.55623620E-18
   83.8574982         1.55608917E-18
   84.0000000         1.55527481E-18
   84.1425018         1.55413589E-18
   84.2850037         1.55310336E-18
   84.4274979         1.55259444E-18
   84.5699997         1.55291145E-18
   84.7125015         1.55417218E-18
   84.8550034         1.55628594E-18
   84.9974976         1.55897799E-18
   85.1399994         1.56185017E-18
   85.2825012         1.56446768E-18