  -30.0000000         4.89657587E-18
  -29.8575001         4.90192318E-18
  -29.7150002         4.91169963E-18
  -29.5725002         4.92431744E-18
  -29.4300003         4.93782985E-18
  -29.2875004         4.95030332E-18
  -29.1450005         4.96019599E-18
  -29.0025005         4.96664179E-18
  -28.8600006         4.96960434E-18
  -28.7175007         4.96985953E-18
  -28.5750008         4.96881480E-18
  -28.4325008         4.96820558E-18
  -28.2900009         4.96972180E-18
  -28.1474991         4.97465014E-18
  -28.0049992         4.98359817E-18
  -27.8624992         4.99635371E-18
  -27.7199993         5.01191587E-18
  -27.5774994         5.02868737E-18
  -27.4349995         5.04478679E-18
  -27.2924995         5.05842410E-18
  -27.1499996         5.06826010E-18
  -27.0074997         5.07367152E-18
  -26.8649998         5.07488375E-18
  -26.7224998         5.07292127E-18
  -26.5799999         5.06940740E-18
  -26.4375000         5.06624302E-18
  -26.2950001         5.06522807E-18
  -26.1525002         5.06770879E-18
  -26.0100002         5.07431424E-18
  -25.8675003         5.08483846E-18
  -25.7250004         5.09828966E-18
  -25.5825005         5.11309371E-18
  -25.4400005         5.12741593E-18
  -25.2975006         5.13953205E-18
  -25.1550007         5.14817609E-18
  -25.0125008         5.15279507E-18
  -24.8700008         5.15365823E-18
  -24.7275009         5.15179790E-18
  -24.5849991         5.14879896E-18
  -24.4424992         5.14646920E-18
  -24.2999992         5.14647375E-18
  -24.1574993         5.14999217E-18
  -24.0149994         5.15748022E-18
  -23.8724995         5.16857726E-18
  -23.7299995         5.18217900E-18
  -23.5874996         5.19666376E-18
  -23.4449997         5.21022001E-18
  -23.3024998         5.22121407E-18
  -23.1599998         5.22851890E-18
  -23.0174999         5.23174532E-18
  -22.8750000         5.23131891E-18
  -22.7325001         5.22839855E-18
  -22.5900002         5.22464067E-18
  -22.4475002         5.22186672E-18
  -22.3050003         5.22169466E-18
  -22.1625004         5.22520977E-18
  -22.0200005         5.23274249E-18
  -21.8775005         5.24380479E-18
  -21.7350006         5.25718609E-18
  -21.5925007         5.27120266E-18
  -21.4500008         5.28403844E-18
  -21.3075008         5.29411474E-18
  -21.1650009         5.30040793E-18
  -21.0224991         5.30265579E-18
  -20.8799992         5.30140634E-18
  -20.7374992         5.29790529E-18
  -20.5949993         5.29384053E-18
  -20.4524994         5.29099875E-18
  -20.3099995         5.29090238E-18
  -20.1674995         5.29449731E-18
  -20.0249996         5.30196344E-18
  -19.8824997         5.31267460E-18
  -19.7399998         5.32532716E-18
  -19.5974998         5.33820926E-18
  -19.4549999         5.34955611E-18
  -19.3125000         5.35791518E-18
  -19.1700001         5.36245433E-18
  -19.0275002         5.36313800E-18
  -18.8850002         5.36074331E-18
  -18.7425003         5.35670832E-18
  -18.6000004         5.35283919E-18
  -18.4575005         5.35094742E-18
  -18.3150005         5.35247399E-18
  -18.1725006         5.35819477E-18
  -18.0300007         5.36805104E-18
  -17.8875008         5.38114986E-18
  -17.7450008         5.39592702E-18
  -17.6025009         5.41044901E-18
  -17.4599991         5.42278930E-18
  -17.3174992         5.43140811E-18
  -17.1749992         5.43545716E-18
  -17.0324993         5.43495051E-18
  -16.8899994         5.43076787E-18
  -16.7474995         5.42447509E-18
  -16.6049995         5.41802019E-18
  -16.4624996         5.41334414E-18
  -16.3199997         5.41199914E-18
  -16.1774998         5.41484630E-18
  -16.0349998         5.42189222E-18
  -15.8924999         5.43229857E-18
  -15.7500000         5.44456069E-18
  -15.6075001         5.45681579E-18
  -15.4650002         5.46721965E-18
  -15.3225002         5.47431810E-18
  -15.1800003         5.47733690E-18
  -15.0375004         5.47633229E-18
  -14.8950005         5.47217984E-18
  -14.7524996         5.46639040E-18
  -14.6099997         5.46080032E-18
  -14.4674997         5.45719464E-18
  -14.3249998         5.45693656E-18
  -14.1824999         5.46068658E-18
  -14.0400000         5.46826107E-18
  -13.8975000         5.47866411E-18
  -13.7550001         5.49028765E-18
  -13.6125002         5.50123291E-18
  -13.4700003         5.50969372E-18
  -13.3275003         5.51432056E-18
  -13.1850004         5.51448930E-18
  -13.0424995         5.51043281E-18
  -12.8999996         5.50319705E-18
  -12.7574997         5.49443927E-18
  -12.6149998         5.48610998E-18
  -12.4724998         5.48007197E-18
  -12.3299999         5.47774429E-18
  -12.1875000         5.47982464E-18
  -12.0450001         5.48617119E-18
  -11.9025002         5.49583721E-18
  -11.7600002         5.50727877E-18
  -11.6175003         5.51867732E-18
  -11.4750004         5.52831728E-18
  -11.3325005         5.53493886E-18
  -11.1899996         5.53799033E-18
  -11.0474997         5.53773597E-18
  -10.9049997         5.53518950E-18
  -10.7624998         5.53189442E-18
  -10.6199999         5.52959734E-18
  -10.4775000         5.52987734E-18
  -10.3350000         5.53380935E-18
  -10.1925001         5.54172298E-18
  -10.0500002         5.55311409E-18
  -9.90750027         5.56671873E-18
  -9.76500034         5.58074151E-18
  -9.62250042         5.59319471E-18
  -9.47999954         5.60227922E-18
  -9.33749962         5.60673814E-18
  -9.19499969         5.60610245E-18
  -9.05249977         5.60078782E-18
  -8.90999985         5.59201350E-18
  -8.76749992         5.58156579E-18
  -8.62500000         5.57144979E-18
  -8.48250008         5.56350554E-18
  -8.34000015         5.55906276E-18
  -8.19750023         5.55869880E-18
  -8.05500031         5.56216055E-18
  -7.91249990         5.56843844E-18
  -7.76999998         5.57599928E-18
  -7.62750006         5.58311179E-18
  -7.48500013         5.58820764E-18
  -7.34250021         5.59020776E-18
  -7.19999981         5.58874820E-18
  -7.05749989         5.58425289E-18
  -6.91499996         5.57785299E-18
  -6.77250004         5.57115200E-18
  -6.63000011         5.56589568E-18
  -6.48750019         5.56360853E-18
  -6.34499979         5.56527447E-18
  -6.20249987         5.57112884E-18
  -6.05999994         5.58060874E-18
  -5.91750002         5.59245935E-18
  -5.77500010         5.60498989E-18
  -5.63250017         5.61640788E-18
  -5.48999977         5.62517848E-18
  -5.34749985         5.63032106E-18
  -5.20499992         5.63159864E-18
  -5.06250000         5.62955261E-18
  -4.92000008         5.62538569E-18
  -4.77750015         5.62071129E-18
  -4.63500023         5.61721852E-18
  -4.49249983         5.61632309E-18
  -4.34999990         5.61887164E-18
  -4.20749998         5.62496010E-18
  -4.06500006         5.63391474E-18
  -3.92249990         5.64442449E-18
  -3.77999997         5.65481718E-18
  -3.63750005         5.66340787E-18
  -3.49499989         5.66885692E-18
  -3.35249996         5.67045462E-18
  -3.21000004         5.66827459E-18
  -3.06750011         5.66317295E-18
  -2.92499995         5.65661837E-18
  -2.78250003         5.65040707E-18
  -2.64000010         5.64630384E-18
  -2.49749994         5.64569173E-18
  -2.35500002         5.64928955E-18
  -2.21250010         5.65700011E-18
  -2.06999993         5.66791931E-18
  -1.92750001         5.68050073E-18
  -1.78499997         5.69285674E-18
  -1.64250004         5.70312660E-18
  -1.50000000         5.70984703E-18
  -1.35749996         5.71224420E-18
  -1.21500003         5.71038718E-18
  -1.07249999         5.70516891E-18
 -0.930000007         5.69812547E-18
 -0.787500024         5.69112131E-18
 -0.644999981         5.68597377E-18
 -0.502499998         5.68409111E-18
 -0.360000014         5.68619670E-18
 -0.217500001         5.69219169E-18
  -7.50000030E-02     5.70118149E-18
   6.75000027E-02     5.71165649E-18
  0.209999993         5.72179607E-18
  0.352499992         5.72983295E-18
  0.495000005         5.73440850E-18
  0.637499988         5.73484525E-18
  0.779999971         5.73129375E-18
  0.922500014         5.72470113E-18
   1.06500006         5.71662702E-18
   1.20749998         5.70892679E-18
   1.35000002         5.70337848E-18
   1.49249995         5.70132211E-18
   1.63499999         5.70339419E-18
   1.77750003         5.70940656E-18
   1.91999996         5.71839429E-18
   2.06250000         5.72882131E-18
   2.20499992         5.73889554E-18
   2.34750009         5.74692830E-18
   2.49000001         5.75167218E-18
   2.63249993         5.75256719E-18
   2.77500010         5.74984618E-18
   2.91750002         5.74449101E-18
   3.05999994         5.73803280E-18
   3.20250010         5.73224460E-18
   3.34500003         5.72878368E-18
   3.48749995         5.72885150E-18
   3.63000011         5.73294894E-18
   3.77250004         5.74076994E-18
   3.91499996         5.75126934E-18
   4.05749989         5.76287758E-18
   4.19999981         5.77382738E-18
   4.34250021         5.78252022E-18
   4.48500013         5.78784933E-18
   4.62750006         5.78942015E-18
   4.76999998         5.78762434E-18
   4.91249990         5.78355089E-18
   5.05499983         5.77876110E-18
   5.19750023         5.77496600E-18
   5.34000015         5.77367890E-18
   5.48250008         5.77590154E-18
   5.62500000         5.78191018E-18
   5.76749992         5.79118535E-18
   5.90999985         5.80249994E-18
   6.05249977         5.81415492E-18
   6.19500017         5.82431518E-18
   6.33750010         5.83138426E-18
   6.48000002         5.83432861E-18
   6.62249994         5.83289759E-18
   6.76499987         5.82767891E-18
   6.90749979         5.81998820E-18
   7.05000019         5.81161092E-18
   7.19250011         5.80445705E-18
   7.33500004         5.80019087E-18
   7.47749996         5.79991707E-18
   7.61999989         5.80397812E-18
   7.76249981         5.81189878E-18
   7.90500021         5.82248794E-18
   8.04749966         5.83408046E-18
   8.18999958         5.84486565E-18
   8.33250046         5.85324458E-18
   8.47500038         5.85814852E-18
   8.61750031         5.85924288E-18
   8.76000023         5.85698964E-18
   8.90250015         5.85253569E-18
   9.04500008         5.84746548E-18
   9.18750000         5.84345862E-18
   9.32999992         5.84193247E-18
   9.47249985         5.84374482E-18
   9.61499977         5.84901520E-18
   9.75749969         5.85710462E-18
   9.89999962         5.86674748E-18
   10.0424995         5.87631258E-18
   10.1850004         5.88413316E-18
   10.3275003         5.88884726E-18
   10.4700003         5.88966989E-18
   10.6125002         5.88656300E-18
   10.7550001         5.88025285E-18
   10.8975000         5.87209892E-18
   11.0400000         5.86383001E-18
   11.1824999         5.85720181E-18
   11.3249998         5.85364618E-18
   11.4674997         5.85398036E-18
   11.6099997         5.85824613E-18
   11.7524996         5.86570564E-18
   11.8950005         5.87500687E-18
   12.0375004         5.88447023E-18
   12.1800003         5.89244136E-18
   12.3225002         5.89763274E-18
   12.4650002         5.89938802E-18
   12.6075001         5.89780935E-18
   12.7500000         5.89373590E-18
   12.8924999         5.88857222E-18
   13.0349998         5.88400494E-18
   13.1774998         5.88166113E-18
   13.3199997         5.88277120E-18
   13.4624996         5.88790634E-18
   13.6049995         5.89684155E-18
   13.7475004         5.90857924E-18
   13.8900003         5.92152751E-18
   14.0325003         5.93381404E-18
   14.1750002         5.94365790E-18
   14.3175001         5.94973106E-18
   14.4600000         5.95142678E-18
   14.6025000         5.94898577E-18
   14.7449999         5.94344408E-18
   14.8874998         5.93642379E-18
   15.0299997         5.92981421E-18
   15.1724997         5.92539913E-18
   15.3149996         5.92451157E-18
   15.4575005         5.92778306E-18
   15.6000004         5.93502296E-18
   15.7425003         5.94525726E-18
   15.8850002         5.95692050E-18
   16.0275002         5.96816271E-18
   16.1700001         5.97721538E-18
   16.3125000         5.98274715E-18
   16.4549999         5.98413144E-18
   16.5974998         5.98157793E-18
   16.7399998         5.97608876E-18
   16.8824997         5.96924756E-18
   17.0249996         5.96289440E-18
   17.1674995         5.95874526E-18
   17.3099995         5.95804671E-18
   17.4524994         5.96132813E-18
   17.5949993         5.96830457E-18
   17.7374992         5.97794371E-18
   17.8799992         5.98867845E-18
   18.0224991         5.99871711E-18
   18.1650009         6.00640203E-18
   18.3075008         6.01053297E-18
   18.4500008         6.01060949E-18
   18.5925007         6.00693143E-18
   18.7350006         6.00054518E-18
   18.8775005         5.99304058E-18
   19.0200005         5.98622751E-18
   19.1625004         5.98177066E-18
   19.3050003         5.98084918E-18
   19.4475002         5.98391761E-18
   19.5900002         5.99062025E-18
   19.7325001         5.99987558E-18
   19.8750000         6.01010697E-18
   20.0174999         6.01957364E-18
   20.1599998         6.02672421E-18
   20.3024998         6.03050608E-18
   20.4449997         6.03056729E-18
   20.5874996         6.02732226E-18
   20.7299995         6.02186121E-18
   20.8724995         6.01573180E-18
   21.0149994         6.01062686E-18
   21.1574993         6.00804357E-18
   21.2999992         6.00897250E-18
   21.4424992         6.01368949E-18
   21.5849991         6.02168668E-18
   21.7275009         6.03177249E-18
   21.8700008         6.04231284E-18
   22.0125008         6.05157064E-18
   22.1550007         6.05806608E-18
   22.2975006         6.06088304E-18
   22.4400005         6.05985320E-18
   22.5825005         6.05558454E-18
   22.7250004         6.04933105E-18
   22.8675003         6.04273429E-18
   23.0100002         6.03749534E-18
   23.1525002         6.03503654E-18
   23.2950001         6.03622313E-18
   23.4375000         6.04118787E-18
   23.5799999         6.04930169E-18
   23.7224998         6.05928989E-18
   23.8649998         6.06947869E-18
   24.0074997         6.07812769E-18
   24.1499996         6.08378561E-18
   24.2924995         6.08559093E-18
   24.4349995         6.08345184E-18
   24.5774994         6.07807020E-18
   24.7199993         6.07079846E-18
   24.8624992         6.06336086E-18
   25.0049992         6.05750070E-18
   25.1474991         6.05463163E-18
   25.2900009         6.05556344E-18
   25.4325008         6.06035323E-18
   25.5750008         6.06830864E-18
   25.7175007         6.07813844E-18
   25.8600006         6.08821102E-18
   26.0025005         6.09687988E-18
   26.1450005         6.10280828E-18
   26.2875004         6.10523812E-18
   26.4300003         6.10414542E-18
   26.5725002         6.10024940E-18
   26.7150002         6.09487024E-18
   26.8575001         6.08965528E-18
   27.0000000         6.08623654E-18
   27.1424999         6.08588416E-18
   27.2849998         6.08923590E-18
   27.4274998         6.09616436E-18
   27.5699997         6.10580515E-18
   27.7124996         6.11673841E-18
   27.8549995         6.12728290E-18
   27.9974995         6.13583512E-18
   28.1399994         6.14118656E-18
   28.2824993         6.14275945E-18
   28.4249992         6.14071507E-18
   28.5674992         6.13592280E-18
   28.7099991         6.12978595E-18
   28.8525009         6.12396921E-18
   28.9950008         6.12006492E-18
   29.1375008         6.11926793E-18
   29.2800007         6.12212667E-18
   29.4225006         6.12842234E-18
   29.5650005         6.13720617E-18
   29.7075005         6.14699668E-18
   29.8500004         6.15608657E-18
   29.9925003         6.16290295E-18
   30.1350002         6.16633285E-18
   30.2775002         6.16594780E-18
   30.4200001         6.16208694E-18
   30.5625000         6.15578010E-18
   30.7049999         6.14853275E-18
   30.8474998         6.14202822E-18
   30.9899998         6.13779223E-18
   31.1324997         6.13689184E-18
   31.2749996         6.13972535E-18
   31.4174995         6.14593458E-18
   31.5599995         6.15446902E-18
   31.7024994         6.16378721E-18
   31.8449993         6.17216903E-18
   31.9874992         6.17806682E-18
   32.1300011         6.18043628E-18
   32.2724991         6.17896101E-18
   32.4150009         6.17412779E-18
   32.5574989         6.16713315E-18
   32.7000008         6.15963724E-18
   32.8424988         6.15342966E-18
   32.9850006         6.15006635E-18
   33.1274986         6.15056555E-18
   33.2700005         6.15521389E-18
   33.4124985         6.16350969E-18
   33.5550003         6.17426303E-18
   33.6974983         6.18581709E-18
   33.8400002         6.19636158E-18
   33.9824982         6.20427232E-18
   34.1250000         6.20842601E-18
   34.2675018         6.20841691E-18
   34.4099998         6.20464166E-18
   34.5525017         6.19822191E-18
   34.6949997         6.19077894E-18
   34.8375015         6.18410152E-18
   34.9799995         6.17978198E-18
   35.1225014         6.17889483E-18
   35.2649994         6.18179451E-18
   35.4075012         6.18805999E-18
   35.5499992         6.19660642E-18
   35.6925011         6.20592255E-18
   35.8349991         6.21438502E-18
   35.9775009         6.22058391E-18
   36.1199989         6.22359774E-18
   36.2625008         6.22316719E-18
   36.4049988         6.21975052E-18
   36.5475006         6.21442803E-18
   36.6899986         6.20869526E-18
   36.8325005         6.20416189E-18
   36.9749985         6.20222257E-18
   37.1175003         6.20376402E-18
   37.2599983         6.20897567E-18
   37.4025002         6.21730166E-18
   37.5449982         6.22755704E-18
   37.6875000         6.23818011E-18
   37.8300018         6.24756034E-18
   37.9724998         6.25437424E-18
   38.1150017         6.25785212E-18
   38.2574997         6.25792243E-18
   38.4000015         6.25521134E-18
   38.5424995         6.25090380E-18
   38.6850014         6.24649741E-18
   38.8274994         6.24349847E-18
   38.9700012         6.24311879E-18
   39.1124992         6.24602385E-18
   39.2550011         6.25218676E-18
   39.3974991         6.26087464E-18
   39.5400009         6.27078260E-18
   39.6824989         6.28028774E-18
   39.8250008         6.28778158E-18
   39.9674988         6.29201261E-18
   40.1100006         6.29235299E-18
   40.2524986         6.28893715E-18
   40.3950005         6.28263858E-18
   40.5374985         6.27488790E-18
   40.6800003         6.26737545E-18
   40.8224983         6.26171174E-18
   40.9650002         6.25910571E-18
   41.1074982         6.26013348E-18
   41.2500000         6.26463334E-18
   41.3925018         6.27173883E-18
   41.5349998         6.28004785E-18
   41.6775017         6.28789697E-18
   41.8199997         6.29368434E-18
   41.9625015         6.29619401E-18
   42.1049995         6.29485067E-18
   42.2475014         6.28985243E-18
   42.3899994         6.28215013E-18
   42.5325012         6.27326208E-18
   42.6749992         6.26497414E-18
   42.8175011         6.25897832E-18
   42.9599991         6.25653359E-18
   43.1025009         6.25822435E-18
   43.2449989         6.26386531E-18
   43.3875008         6.27255898E-18
   43.5299988         6.28289749E-18
   43.6725006         6.29324842E-18
   43.8149986         6.30207650E-18
   43.9575005         6.30822990E-18
   44.0999985         6.31115233E-18
   44.2425003         6.31098234E-18
   44.3849983         6.30851073E-18
   44.5275002         6.30501920E-18
   44.6699982         6.30201281E-18
   44.8125000         6.30089694E-18
   44.9550018         6.30267331E-18
   45.0974998         6.30771374E-18
   45.2400017         6.31566956E-18
   45.3824997         6.32553741E-18
   45.5250015         6.33587055E-18
   45.6674995         6.34508369E-18
   45.8100014         6.35178220E-18
   45.9524994         6.35503922E-18
   46.0950012         6.35457517E-18
   46.2374992         6.35079868E-18
   46.3800011         6.34471890E-18
   46.5224991         6.33774867E-18
   46.6650009         6.33143356E-18
   46.8074989         6.32716241E-18
   46.9500008         6.32590054E-18
   47.0924988         6.32800158E-18
   47.2350006         6.33313589E-18
   47.3774986         6.34035056E-18
   47.5200005         6.34826544E-18
   47.6624985         6.35536430E-18
   47.8050003         6.36032449E-18
   47.9474983         6.36230228E-18
   48.0900002         6.36112024E-18
   48.2324982         6.35730404E-18
   48.3750000         6.35196790E-18
   48.5175018         6.34657634E-18
   48.6599998         6.34264392E-18
   48.8025017         6.34142548E-18
   48.9449997         6.34367045E-18
   49.0875015         6.34946899E-18
   49.2299995         6.35822469E-18
   49.3725014         6.36875057E-18
   49.5149994         6.37947703E-18
   49.6575012         6.38873773E-18
   49.7999992         6.39508428E-18
   49.9425011         6.39757616E-18
   50.0849991         6.39597598E-18
   50.2275009         6.39081065E-18
   50.3699989         6.38327338E-18
   50.5125008         6.37498751E-18
   50.6549988         6.36767523E-18
   50.7975006         6.36281761E-18
   50.9399986         6.36136633E-18
   51.0825005         6.36358028E-18
   51.2249985         6.36900120E-18
   51.3675003         6.37657197E-18
   51.5099983         6.38486363E-18
   51.6525002         6.39236285E-18
   51.7949982         6.39776517E-18
   51.9375000         6.40023017E-18
   52.0800018         6.39954567E-18
   52.2224998         6.39617781E-18
   52.3650017         6.39118784E-18
   52.5074997         6.38602003E-18
   52.6500015         6.38220797E-18
   52.7924995         6.38104868E-18
   52.9350014         6.38332301E-18
   53.0774994         6.38912444E-18
   53.2200012         6.39784127E-18
   53.3624992         6.40828649E-18
   53.5050011         6.41895505E-18
   53.6474991         6.42833156E-18
   53.7900009         6.43518971E-18
   53.9324989         6.43881938E-18
   54.0750008         6.43914405E-18
   54.2174988         6.43670966E-18
   54.3600006         6.43256424E-18
   54.5024986         6.42803957E-18
   54.6450005         6.42448517E-18
   54.7874985         6.42299087E-18
   54.9300003         6.42415926E-18
   55.0724983         6.42796429E-18
   55.2150002         6.43374546E-18
   55.3574982         6.44034346E-18
   55.5000000         6.44635169E-18
   55.6425018         6.45042804E-18
   55.7849998         6.45160677E-18
   55.9275017         6.44951607E-18
   56.0699997         6.44446861E-18
   56.2125015         6.43740035E-18
   56.3549995         6.42967821E-18
   56.4975014         6.42282626E-18
   56.6399994         6.41823127E-18
   56.7825012         6.41687924E-18
   56.9249992         6.41917302E-18
   57.0675011         6.42485533E-18
   57.2099991         6.43304814E-18
   57.3525009         6.44240976E-18
   57.4949989         6.45138426E-18
   57.6375008         6.45850380E-18
   57.7799988         6.46268851E-18
   57.9225006         6.46347722E-18
   58.0649986         6.46113258E-18
   58.2075005         6.45658805E-18
   58.3499985         6.45125398E-18
   58.4925003         6.44671027E-18
   58.6349983         6.44437349E-18
   58.7775002         6.44519943E-18
   58.9199982         6.44949953E-18
   59.0625000         6.45688708E-18
   59.2050018         6.46636491E-18
   59.3474998         6.47652228E-18
   59.4900017         6.48580448E-18
   59.6324997         6.49279995E-18
   59.7750015         6.49650944E-18
   59.9174995         6.49654087E-18
   60.0600014         6.49319824E-18
   60.2024994         6.48743775E-18
   60.3450012         6.48069416E-18
   60.4874992         6.47459288E-18
   60.6300011         6.47061703E-18
   60.7724991         6.46979482E-18
   60.9150009         6.47248812E-18
   61.0574989         6.47832098E-18
   61.2000008         6.48627639E-18
   61.3424988         6.49492498E-18
   61.4850006         6.50273108E-18
   61.6274986         6.50836832E-18
   61.7700005         6.51098138E-18
   61.9124985         6.51034197E-18
   62.0550003         6.50688973E-18
   62.1974983         6.50164747E-18
   62.3400002         6.49602595E-18
   62.4824982         6.49155587E-18
   62.6250000         6.48958759E-18
   62.7675018         6.49100538E-18
   62.9099998         6.49602885E-18
   63.0525017         6.50414060E-18
   63.1949997         6.51417181E-18
   63.3375015         6.52453556E-18
   63.4799995         6.53355100E-18
   63.6225014         6.53979622E-18
   63.7649994         6.54239770E-18
   63.9075012         6.54119829E-18
   64.0500031         6.53676625E-18
   64.1924973         6.53026255E-18
   64.3349991         6.52319056E-18
   64.4775009         6.51710334E-18
   64.6200027         6.51330162E-18
   64.7624969         6.51259355E-18
   64.9049988         6.51514127E-18
   65.0475006         6.52042489E-18
   65.1900024         6.52733846E-18
   65.3324966         6.53440465E-18
   65.4749985         6.54007663E-18
   65.6175003         6.54307144E-18
   65.7600021         6.54265826E-18
   65.9024963         6.53883503E-18
   66.0449982         6.53234456E-18
   66.1875000         6.52452605E-18
   66.3300018         6.51703262E-18
   66.4725037         6.51148885E-18
   66.6149979         6.50916158E-18
   66.7574997         6.51071751E-18
   66.9000015         6.51610494E-18
   67.0425034         6.52457981E-18
   67.1849976         6.53485298E-18
   67.3274994         6.54532881E-18
   67.4700012         6.55439926E-18
   67.6125031         6.56073877E-18
   67.7549973         6.56355574E-18
   67.8974991         6.56275420E-18
   68.0400009         6.55895661E-18
   68.1825027         6.55338886E-18
   68.3249969         6.54762424E-18
   68.4674988         6.54325424E-18
   68.6100006         6.54154198E-18
   68.7525024         6.54316325E-18
   68.8949966         6.54807133E-18
   69.0374985         6.55553002E-18
   69.1800003         6.56428986E-18
   69.3225021         6.57285862E-18
   69.4649963         6.57980653E-18
   69.6074982         6.58404417E-18
   69.7500000         6.58502149E-18
   69.8925018         6.58282491E-18
   70.0350037         6.57816375E-18
   70.1774979         6.57224031E-18
   70.3199997         6.56652656E-18
   70.4625015         6.56248164E-18
   70.6050034         6.56125618E-18
   70.7474976         6.56344490E-18
   70.8899994         6.56895226E-18
   71.0325012         6.57699784E-18
   71.1750031         6.58628542E-18
   71.3174973         6.59527605E-18
   71.4599991         6.60251677E-18
   71.6025009         6.60694136E-18
   71.7450027         6.60807046E-18
   71.8874969         6.60608482E-18
   72.0299988         6.60176156E-18
   72.1725006         6.59630092E-18
   72.3150024         6.59108886E-18
   72.4574966         6.58743065E-18
   72.5999985         6.58630899E-18
   72.7425003         6.58819579E-18
   72.8850021         6.59295167E-18
   73.0274963         6.59984126E-18
   73.1699982         6.60766680E-18
   73.3125000         6.61500927E-18
   73.4550018         6.62052739E-18
   73.5975037         6.62325295E-18
   73.7399979         6.62280420E-18
   73.8824997         6.61947232E-18
   74.0250015         6.61414941E-18
   74.1675034         6.60812506E-18
   74.3099976         6.60280463E-18
   74.4524994         6.59941981E-18
   74.5950012         6.59878619E-18
   74.7375031         6.60116020E-18
   74.8799973         6.60620062E-18
   75.0224991         6.61304637E-18
   75.1650009         6.62047445E-18
   75.3075027         6.62712953E-18
   75.4499969         6.63178366E-18
   75.5924988         6.63358692E-18
   75.7350006         6.63225226E-18
   75.8775024         6.62814655E-18
   76.0199966         6.62223179E-18
   76.1624985         6.61588029E-18
   76.3050003         6.61058385E-18
   76.4475021         6.60763785E-18
   76.5899963         6.60786491E-18
   76.7324982         6.61145074E-18
   76.8750000         6.61792508E-18
   77.0175018         6.62628043E-18
   77.1600037         6.63518958E-18
   77.3024979         6.64327362E-18
   77.4449997         6.64936084E-18
   77.5875015         6.65269975E-18
   77.7300034         6.65309101E-18
   77.8724976         6.65092545E-18
   78.0149994         6.64711546E-18
   78.1575012         6.64292827E-18
   78.3000031         6.63973411E-18
   78.4424973         6.63872412E-18
   78.5849991         6.64064442E-18
   78.7275009         6.64562529E-18
   78.8700027         6.65313568E-18
   79.0124969         6.66209776E-18
   79.1549988         6.67112024E-18
   79.2975006         6.67880226E-18
   79.4400024         6.68402591E-18
   79.5824966         6.68617575E-18
   79.7249985         6.68524021E-18
   79.8675003         6.68179335E-18
   80.0100021         6.67686211E-18
   80.1524963         6.67172408E-18
   80.2949982         6.66766552E-18
   80.4375000         6.66574108E-18
   80.5800018         6.66656578E-18
   80.7225037         6.67018676E-18
   80.8649979         6.67605437E-18
   81.0074997         6.68311601E-18
   81.1500015         6.69002504E-18
   81.2925034         6.69542653E-18
   81.4349976         6.69825300E-18
   81.5774994         6.69796101E-18
   81.7200012         6.69464649E-18
   81.8625031         6.68901133E-18
   82.0049973         6.68219991E-18
   82.1474991         6.67554441E-18
   82.2900009         6.67029223E-18
   82.4325027         6.66735822E-18
   82.5749969         6.66716673E-18
   82.7174988         6.66958375E-18
   82.8600006         6.67395002E-18
   83.0025024         6.67920675E-18
   83.1449966         6.68409498E-18
   83.2874985         6.68739708E-18
   83.4300003         6.68818663E-18
   83.5725021         6.68603761E-18
   83.7149963         6.68113988E-18
   83.8574982         6.67428048E-18
   84.0000000         6.66669193E-18
   84.1425018         6.65979407E-18
   84.2850037         6.65488640E-18
   84.4274979         6.65287511E-18
   84.5699997         6.65409438E-18
   84.7125015         6.65825716E-18
   84.8550034         6.66453671E-18
   84.9974976         6.67174931E-18
   85.1399994         6.67858885E-18
   85.2825012         6.68386957E-18