  -30.000000        9.84044911E-18
  -29.857500        9.85751136E-18
  -29.715000        9.88334669E-18
  -29.572500        9.90642503E-18
  -29.430000        9.91863835E-18
  -29.287500        9.91982867E-18
  -29.145000        9.91749519E-18
  -29.002501        9.92190241E-18
  -28.860001        9.93955858E-18
  -28.717501        9.96902606E-18
  -28.575001        1.00015789E-17
  -28.432501        1.00263141E-17
  -28.290001        1.00366365E-17
  -28.147499        1.00342054E-17
  -28.004999        1.00279643E-17
  -27.862499        1.00288411E-17
  -27.719999        1.00432829E-17
  -27.577499        1.00695062E-17
  -27.434999        1.00986866E-17
  -27.292500        1.01203372E-17
  -27.150000        1.01286314E-17
  -27.007500        1.01258512E-17
  -26.865000        1.01209279E-17
  -26.722500        1.01239677E-17
  -26.580000        1.01401093E-17
  -26.437500        1.01664187E-17
  -26.295000        1.01936908E-17
  -26.152500        1.02120459E-17
  -26.010000        1.02169213E-17
  -25.867500        1.02118416E-17
  -25.725000        1.02062763E-17
  -25.582500        1.02099118E-17
  -25.440001        1.02267937E-17
  -25.297501        1.02528946E-17
  -25.155001        1.02785579E-17
  -25.012501        1.02943446E-17
  -24.870001        1.02967327E-17
  -24.727501        1.02902162E-17
  -24.584999        1.02845632E-17
  -24.442499        1.02888770E-17
  -24.299999        1.03060972E-17
  -24.157499        1.03312484E-17
  -24.014999        1.03545195E-17
  -23.872499        1.03672705E-17
  -23.730000        1.03673408E-17
  -23.587500        1.03604049E-17
  -23.445000        1.03565428E-17
  -23.302500        1.03641016E-17
  -23.160000        1.03845578E-17
  -23.017500        1.04115189E-17
  -22.875000        1.04344831E-17
  -22.732500        1.04451239E-17
  -22.590000        1.04422834E-17
  -22.447500        1.04326732E-17
  -22.305000        1.04268391E-17
  -22.162500        1.04328113E-17
  -22.020000        1.04512806E-17
  -21.877501        1.04752126E-17
  -21.735001        1.04941435E-17
  -21.592501        1.05005591E-17
  -21.450001        1.04945016E-17
  -21.307501        1.04835920E-17
  -21.165001        1.04784444E-17
  -21.022499        1.04862034E-17
  -20.879999        1.05061359E-17
  -20.737499        1.05299306E-17
  -20.594999        1.05465826E-17
  -20.452499        1.05489475E-17
  -20.309999        1.05380312E-17
  -20.167500        1.05224463E-17
  -20.025000        1.05133440E-17
  -19.882500        1.05178496E-17
  -19.740000        1.05349466E-17
  -19.597500        1.05562449E-17
  -19.455000        1.05711829E-17
  -19.312500        1.05734916E-17
  -19.170000        1.05650395E-17
  -19.027500        1.05547220E-17
  -18.885000        1.05530553E-17
  -18.742500        1.05657335E-17
  -18.600000        1.05900203E-17
  -18.457500        1.06161700E-17
  -18.315001        1.06330395E-17
  -18.172501        1.06345483E-17
  -18.030001        1.06231415E-17
  -17.887501        1.06082009E-17
  -17.745001        1.06003758E-17
  -17.602501        1.06052719E-17
  -17.459999        1.06202480E-17
  -17.317499        1.06362506E-17
  -17.174999        1.06435075E-17
  -17.032499        1.06376477E-17
  -16.889999        1.06225260E-17
  -16.747499        1.06080471E-17
  -16.605000        1.06043107E-17
  -16.462500        1.06155992E-17
  -16.320000        1.06378247E-17
  -16.177500        1.06609701E-17
  -16.035000        1.06750363E-17
  -15.892500        1.06759296E-17
  -15.750000        1.06677414E-17
  -15.607500        1.06601024E-17
  -15.465000        1.06622175E-17
  -15.322500        1.06772316E-17
  -15.180000        1.07003009E-17
  -15.037500        1.07215338E-17
  -14.895000        1.07319926E-17
  -14.752500        1.07291025E-17
  -14.610000        1.07181969E-17
  -14.467500        1.07092617E-17
  -14.325000        1.07108664E-17
  -14.182500        1.07249649E-17
  -14.040000        1.07457164E-17
  -13.897500        1.07630433E-17
  -13.755000        1.07687658E-17
  -13.612500        1.07615974E-17
  -13.470000        1.07479705E-17
  -13.327500        1.07381874E-17
  -13.185000        1.07402347E-17
  -13.042500        1.07549941E-17
  -12.900000        1.07757579E-17
  -12.757500        1.07923379E-17
  -12.615000        1.07972713E-17
  -12.472500        1.07903552E-17
  -12.330000        1.07787573E-17
  -12.187500        1.07726238E-17
  -12.045000        1.07788508E-17
  -11.902500        1.07968006E-17
  -11.760000        1.08185860E-17
  -11.617500        1.08337731E-17
  -11.475000        1.08356888E-17
  -11.332500        1.08255129E-17
  -11.190000        1.08116609E-17
  -11.047500        1.08048143E-17
  -10.905000        1.08115641E-17
  -10.762500        1.08304908E-17
  -10.620000        1.08530555E-17
  -10.477500        1.08687653E-17
  -10.335000        1.08715008E-17
  -10.192500        1.08631975E-17
  -10.050000        1.08526353E-17
  -9.9075003        1.08500743E-17
  -9.7650003        1.08609658E-17
  -9.6225004        1.08825362E-17
  -9.4799995        1.09053383E-17
  -9.3374996        1.09188618E-17
  -9.1949997        1.09178403E-17
  -9.0524998        1.09054731E-17
  -8.9099998        1.08915930E-17
  -8.7674999        1.08868814E-17
  -8.6250000        1.08965619E-17
  -8.4825001        1.09173580E-17
  -8.3400002        1.09395215E-17
  -8.1975002        1.09526985E-17
  -8.0550003        1.09521128E-17
  -7.9124999        1.09413587E-17
  -7.7700000        1.09301272E-17
  -7.6275001        1.09282652E-17
  -7.4850001        1.09397506E-17
  -7.3425002        1.09602176E-17
  -7.1999998        1.09795405E-17
  -7.0574999        1.09879016E-17
  -6.9150000        1.09817309E-17
  -6.7725000        1.09659259E-17
  -6.6300001        1.09510218E-17
  -6.4875002        1.09470249E-17
  -6.3449998        1.09575838E-17
  -6.2024999        1.09779862E-17
  -6.0599999        1.09981438E-17
  -5.9175000        1.10087334E-17
  -5.7750001        1.10067920E-17
  -5.6325002        1.09973968E-17
  -5.4899998        1.09904461E-17
  -5.3474998        1.09945315E-17
  -5.2049999        1.10116128E-17
  -5.0625000        1.10357218E-17
  -4.9200001        1.10564799E-17
  -4.7775002        1.10652960E-17
  -4.6350002        1.10604942E-17
  -4.4924998        1.10482966E-17
  -4.3499999        1.10390595E-17
  -4.2075000        1.10410596E-17
  -4.0650001        1.10555807E-17
  -3.9224999        1.10762346E-17
  -3.7800000        1.10929312E-17
  -3.6375000        1.10980391E-17
  -3.4949999        1.10910229E-17
  -3.3525000        1.10787385E-17
  -3.2100000        1.10712277E-17
  -3.0675001        1.10755820E-17
  -2.9250000        1.10915987E-17
  -2.7825000        1.11118894E-17
  -2.6400001        1.11263618E-17
  -2.4974999        1.11283668E-17
  -2.3550000        1.11187773E-17
  -2.2125001        1.11055094E-17
  -2.0699999        1.10987753E-17
  -1.9275000        1.11049204E-17
  -1.7850000        1.11225890E-17
  -1.6425000        1.11435390E-17
  -1.5000000        1.11576201E-17
  -1.3575000        1.11589047E-17
  -1.2150000        1.11492672E-17
  -1.0725000        1.11372243E-17
 -0.93000001        1.11327468E-17
 -0.78750002        1.11411749E-17
 -0.64499998        1.11599304E-17
 -0.50250000        1.11800342E-17
 -0.36000001        1.11915353E-17
 -0.21750000        1.11895741E-17
 -7.50000030E-02    1.11773996E-17
  6.75000027E-02    1.11645088E-17
  0.20999999        1.11609842E-17
  0.35249999        1.11714299E-17
  0.49500000        1.11921805E-17
  0.63749999        1.12134473E-17
  0.77999997        1.12251561E-17
  0.92250001        1.12229582E-17
   1.0650001        1.12108136E-17
   1.2075000        1.11985730E-17
   1.3500000        1.11960294E-17
   1.4924999        1.12070019E-17
   1.6350000        1.12270313E-17
   1.7775000        1.12460796E-17
   1.9200000        1.12546095E-17
   2.0625000        1.12493983E-17
   2.2049999        1.12355703E-17
   2.3475001        1.12236084E-17
   2.4900000        1.12231270E-17
   2.6324999        1.12371328E-17
   2.7750001        1.12602136E-17
   2.9175000        1.12817319E-17
   3.0599999        1.12921238E-17
   3.2025001        1.12885164E-17
   3.3450000        1.12763164E-17
   3.4875000        1.12658385E-17
   3.6300001        1.12660188E-17
   3.7725000        1.12790121E-17
   3.9150000        1.12989108E-17
   4.0574999        1.13153510E-17
   4.1999998        1.13198137E-17
   4.3425002        1.13108247E-17
   4.4850001        1.12949172E-17
   4.6275001        1.12827874E-17
   4.7700000        1.12829495E-17
   4.9124999        1.12967113E-17
   5.0549998        1.13174703E-17
   5.1975002        1.13347319E-17
   5.3400002        1.13404096E-17
   5.4825001        1.13336234E-17
   5.6250000        1.13211074E-17
   5.7674999        1.13130357E-17
   5.9099998        1.13168044E-17
   6.0524998        1.13325407E-17
   6.1950002        1.13530547E-17
   6.3375001        1.13682261E-17
   6.4800000        1.13711750E-17
   6.6224999        1.13624515E-17
   6.7649999        1.13497262E-17
   6.9074998        1.13431716E-17
   7.0500002        1.13493208E-17
   7.1925001        1.13671482E-17
   7.3350000        1.13887037E-17
   7.4775000        1.14039313E-17
   7.6199999        1.14067363E-17
   7.7624998        1.13986283E-17
   7.9050002        1.13877467E-17
   8.0474997        1.13838631E-17
   8.1899996        1.13924219E-17
   8.3325005        1.14112047E-17
   8.4750004        1.14316791E-17
   8.6175003        1.14441827E-17
   8.7600002        1.14438031E-17
   8.9025002        1.14333798E-17
   9.0450001        1.14217810E-17
   9.1875000        1.14185013E-17
   9.3299999        1.14278459E-17
   9.4724998        1.14462317E-17
   9.6149998        1.14642716E-17
   9.7574997        1.14723946E-17
   9.8999996        1.14666242E-17
   10.042500        1.14510161E-17
   10.185000        1.14352781E-17
   10.327500        1.14289932E-17
   10.470000        1.14359242E-17
   10.612500        1.14518507E-17
   10.755000        1.14672296E-17
   10.897500        1.14731001E-17
   11.040000        1.14666275E-17
   11.182500        1.14529475E-17
   11.325000        1.14421504E-17
   11.467500        1.14432091E-17
   11.610000        1.14585070E-17
   11.752500        1.14822752E-17
   11.895000        1.15039002E-17
   12.037500        1.15141606E-17
   12.180000        1.15106459E-17
   12.322500        1.14991092E-17
   12.465000        1.14899589E-17
   12.607500        1.14919665E-17
   12.750000        1.15069939E-17
   12.892500        1.15288893E-17
   13.035000        1.15472172E-17
   13.177500        1.15535708E-17
   13.320000        1.15466597E-17
   13.462500        1.15331154E-17
   13.605000        1.15235201E-17
   13.747500        1.15260356E-17
   13.890000        1.15414708E-17
   14.032500        1.15627533E-17
   14.175000        1.15791124E-17
   14.317500        1.15824898E-17
   14.460000        1.15723147E-17
   14.602500        1.15558207E-17
   14.745000        1.15436984E-17
   14.887500        1.15437463E-17
   15.030000        1.15562938E-17
   15.172500        1.15741535E-17
   15.315000        1.15870798E-17
   15.457500        1.15880394E-17
   15.600000        1.15774937E-17
   15.742500        1.15631239E-17
   15.885000        1.15551887E-17
   16.027500        1.15603189E-17
   16.170000        1.15775003E-17
   16.312500        1.15986546E-17
   16.455000        1.16134677E-17
   16.597500        1.16155282E-17
   16.740000        1.16060992E-17
   16.882500        1.15932605E-17
   17.025000        1.15869607E-17
   17.167500        1.15929950E-17
   17.309999        1.16095386E-17
   17.452499        1.16283173E-17
   17.594999        1.16396679E-17
   17.737499        1.16384296E-17
   17.879999        1.16270682E-17
   18.022499        1.16141733E-17
   18.165001        1.16092309E-17
   18.307501        1.16168716E-17
   18.450001        1.16340703E-17
   18.592501        1.16520019E-17
   18.735001        1.16614202E-17
   18.877501        1.16582943E-17
   19.020000        1.16462787E-17
   19.162500        1.16345269E-17
   19.305000        1.16321529E-17
   19.447500        1.16427152E-17
   19.590000        1.16620489E-17
   19.732500        1.16807754E-17
   19.875000        1.16899646E-17
   20.017500        1.16865227E-17
   20.160000        1.16750356E-17
   20.302500        1.16649448E-17
   20.445000        1.16647744E-17
   20.587500        1.16768993E-17
   20.730000        1.16960427E-17
   20.872499        1.17124374E-17
   21.014999        1.17177471E-17
   21.157499        1.17101709E-17
   21.299999        1.16956374E-17
   21.442499        1.16843323E-17
   21.584999        1.16846309E-17
   21.727501        1.16980966E-17
   21.870001        1.17185404E-17
   22.012501        1.17357424E-17
   22.155001        1.17415856E-17
   22.297501        1.17349185E-17
   22.440001        1.17222048E-17
   22.582500        1.17135665E-17
   22.725000        1.17166006E-17
   22.867500        1.17316942E-17
   23.010000        1.17516896E-17
   23.152500        1.17661032E-17
   23.295000        1.17674027E-17
   23.437500        1.17555550E-17
   23.580000        1.17381131E-17
   23.722500        1.17257798E-17
   23.865000        1.17260950E-17
   24.007500        1.17390238E-17
   24.150000        1.17570804E-17
   24.292500        1.17699091E-17
   24.434999        1.17705543E-17
   24.577499        1.17596554E-17
   24.719999        1.17450507E-17
   24.862499        1.17370452E-17
   25.004999        1.17421828E-17
   25.147499        1.17592807E-17
   25.290001        1.17801049E-17
   25.432501        1.17942828E-17
   25.575001        1.17954897E-17
   25.717501        1.17852086E-17
   25.860001        1.17718133E-17
   26.002501        1.17655333E-17
   26.145000        1.17723427E-17
   26.287500        1.17904257E-17
   26.430000        1.18113343E-17
   26.572500        1.18250986E-17
   26.715000        1.18262062E-17
   26.857500        1.18168433E-17
   27.000000        1.18054762E-17
   27.142500        1.18016480E-17
   27.285000        1.18101556E-17
   27.427500        1.18281277E-17
   27.570000        1.18467567E-17
   27.712500        1.18566133E-17
   27.855000        1.18533344E-17
   27.997499        1.18402534E-17
   28.139999        1.18263857E-17
   28.282499        1.18210057E-17
   28.424999        1.18281087E-17
   28.567499        1.18440849E-17
   28.709999        1.18599965E-17
   28.852501        1.18670681E-17
   28.995001        1.18620355E-17
   29.137501        1.18491274E-17
   29.280001        1.18374906E-17
   29.422501        1.18356178E-17
   29.565001        1.18461842E-17
   29.707500        1.18644186E-17
   29.850000        1.18809912E-17
   29.992500        1.18876756E-17
   30.135000        1.18823395E-17
   30.277500        1.18702362E-17
   30.420000        1.18608022E-17
   30.562500        1.18619073E-17
   30.705000        1.18750305E-17
   30.847500        1.18942972E-17
   30.990000        1.19099789E-17
   31.132500        1.19143365E-17
   31.275000        1.19062822E-17
   31.417500        1.18920349E-17
   31.559999        1.18813634E-17
   31.702499        1.18816835E-17
   31.844999        1.18935792E-17
   31.987499        1.19104611E-17
   32.130001        1.19225851E-17
   32.272499        1.19230004E-17
   32.415001        1.19118318E-17
   32.557499        1.18962857E-17
   32.700001        1.18863513E-17
   32.842499        1.18887692E-17
   32.985001        1.19029098E-17
   33.127499        1.19210515E-17
   33.270000        1.19329282E-17
   33.412498        1.19318231E-17
   33.555000        1.19185617E-17
   33.697498        1.19010015E-17
   33.840000        1.18893316E-17
   33.982498        1.18899884E-17
   34.125000        1.19018634E-17
   34.267502        1.19170670E-17
   34.410000        1.19257979E-17
   34.552502        1.19223701E-17
   34.695000        1.19087787E-17
   34.837502        1.18936363E-17
   34.980000        1.18871016E-17
   35.122501        1.18948440E-17
   35.264999        1.19146583E-17
   35.407501        1.19377540E-17
   35.549999        1.19539617E-17
   35.692501        1.19577271E-17
   35.834999        1.19513189E-17
   35.977501        1.19433399E-17
   36.119999        1.19434499E-17
   36.262501        1.19564995E-17
   36.404999        1.19795671E-17
   36.547501        1.20036927E-17
   36.689999        1.20192313E-17
   36.832500        1.20215920E-17
   36.974998        1.20139224E-17
   37.117500        1.20051311E-17
   37.259998        1.20044504E-17
   37.402500        1.20158315E-17
   37.544998        1.20355358E-17
   37.687500        1.20543633E-17
   37.830002        1.20631603E-17
   37.972500        1.20582858E-17
   38.115002        1.20437547E-17
   38.257500        1.20287868E-17
   38.400002        1.20222571E-17
   38.542500        1.20274212E-17
   38.685001        1.20400638E-17
   38.827499        1.20511886E-17
   38.970001        1.20525683E-17
   39.112499        1.20418042E-17
   39.255001        1.20238337E-17
   39.397499        1.20079684E-17
   39.540001        1.20022889E-17
   39.682499        1.20087922E-17
   39.825001        1.20222281E-17
   39.967499        1.20333181E-17
   40.110001        1.20344108E-17
   40.252499        1.20241323E-17
   40.395000        1.20082223E-17
   40.537498        1.19960520E-17
   40.680000        1.19949295E-17
   40.822498        1.20056597E-17
   40.965000        1.20220304E-17
   41.107498        1.20345581E-17
   41.250000        1.20362124E-17
   41.392502        1.20266535E-17
   41.535000        1.20124211E-17
   41.677502        1.20029507E-17
   41.820000        1.20048433E-17
   41.962502        1.20178457E-17
   42.105000        1.20350163E-17
   42.247501        1.20469509E-17
   42.389999        1.20475531E-17
   42.532501        1.20378130E-17
   42.674999        1.20253152E-17
   42.817501        1.20197251E-17
   42.959999        1.20269737E-17
   43.102501        1.20456365E-17
   43.244999        1.20677140E-17
   43.387501        1.20833477E-17
   43.529999        1.20866630E-17
   43.672501        1.20792118E-17
   43.814999        1.20689432E-17
   43.957500        1.20653284E-17
   44.099998        1.20735588E-17
   44.242500        1.20913457E-17
   44.384998        1.21102426E-17
   44.527500        1.21207238E-17
   44.669998        1.21179553E-17
   44.812500        1.21047940E-17
   44.955002        1.20901835E-17
   45.097500        1.20838862E-17
   45.240002        1.20907046E-17
   45.382500        1.21076527E-17
   45.525002        1.21257680E-17
   45.667500        1.21354816E-17
   45.810001        1.21323317E-17
   45.952499        1.21195914E-17
   46.095001        1.21062424E-17
   46.237499        1.21015308E-17
   46.380001        1.21093700E-17
   46.522499        1.21259682E-17
   46.665001        1.21420916E-17
   46.807499        1.21486056E-17
   46.950001        1.21419675E-17
   47.092499        1.21263702E-17
   47.235001        1.21112526E-17
   47.377499        1.21056948E-17
   47.520000        1.21130360E-17
   47.662498        1.21289609E-17
   47.805000        1.21441719E-17
   47.947498        1.21500184E-17
   48.090000        1.21437037E-17
   48.232498        1.21299221E-17
   48.375000        1.21179983E-17
   48.517502        1.21162372E-17
   48.660000        1.21269277E-17
   48.802502        1.21449884E-17
   48.945000        1.21610580E-17
   49.087502        1.21671510E-17
   49.230000        1.21614509E-17
   49.372501        1.21493658E-17
   49.514999        1.21402073E-17
   49.657501        1.21415340E-17
   49.799999        1.21545638E-17
   49.942501        1.21734326E-17
   50.084999        1.21887272E-17
   50.227501        1.21931501E-17
   50.369999        1.21858842E-17
   50.512501        1.21730306E-17
   50.654999        1.21638704E-17
   50.797501        1.21652245E-17
   50.939999        1.21773328E-17
   51.082500        1.21937507E-17
   51.224998        1.22053014E-17
   51.367500        1.22056902E-17
   51.509998        1.21953562E-17
   51.652500        1.21812313E-17
   51.794998        1.21725343E-17
   51.937500        1.21751548E-17
   52.080002        1.21880365E-17
   52.222500        1.22037612E-17
   52.365002        1.22129950E-17
   52.507500        1.22101222E-17
   52.650002        1.21966474E-17
   52.792500        1.21803255E-17
   52.935001        1.21705135E-17
   53.077499        1.21725690E-17
   53.220001        1.21846682E-17
   53.362499        1.21989817E-17
   53.505001        1.22064975E-17
   53.647499        1.22025701E-17
   53.790001        1.21898290E-17
   53.932499        1.21766652E-17
   54.075001        1.21721861E-17
   54.217499        1.21806671E-17
   54.360001        1.21988626E-17
   54.502499        1.22178224E-17
   54.645000        1.22281448E-17
   54.787498        1.22255359E-17
   54.930000        1.22133251E-17
   55.072498        1.22004425E-17
   55.215000        1.21960403E-17
   55.357498        1.22040168E-17
   55.500000        1.22207109E-17
   55.642502        1.22371727E-17
   55.785000        1.22446272E-17
   55.927502        1.22398527E-17
   56.070000        1.22272109E-17
   56.212502        1.22160961E-17
   56.355000        1.22153277E-17
   56.497501        1.22278247E-17
   56.639999        1.22487879E-17
   56.782501        1.22684806E-17
   56.924999        1.22779452E-17
   57.067501        1.22742601E-17
   57.209999        1.22621808E-17
   57.352501        1.22512066E-17
   57.494999        1.22498442E-17
   57.637501        1.22605041E-17
   57.779999        1.22780999E-17
   57.922501        1.22931571E-17
   58.064999        1.22975502E-17
   58.207500        1.22894100E-17
   58.349998        1.22742494E-17
   58.492500        1.22616332E-17
   58.634998        1.22594280E-17
   58.777500        1.22690712E-17
   58.919998        1.22847289E-17
   59.062500        1.22968339E-17
   59.205002        1.22978588E-17
   59.347500        1.22868655E-17
   59.490002        1.22701011E-17
   59.632500        1.22572798E-17
   59.775002        1.22558231E-17
   59.917500        1.22665004E-17
   60.060001        1.22830886E-17
   60.202499        1.22962127E-17
   60.345001        1.22990251E-17
   60.487499        1.22912877E-17
   60.630001        1.22793945E-17
   60.772499        1.22723551E-17
   60.915001        1.22761941E-17
   61.057499        1.22901776E-17
   61.200001        1.23071720E-17
   61.342499        1.23179138E-17
   61.485001        1.23166118E-17
   61.627499        1.23045002E-17
   61.770000        1.22891668E-17
   61.912498        1.22800794E-17
   62.055000        1.22829861E-17
   62.197498        1.22965750E-17
   62.340000        1.23133883E-17
   62.482498        1.23244179E-17
   62.625000        1.23245875E-17
   62.767502        1.23157854E-17
   62.910000        1.23056202E-17
   63.052502        1.23026465E-17
   63.195000        1.23109969E-17
   63.337502        1.23276778E-17
   63.480000        1.23442198E-17
   63.622501        1.23517049E-17
   63.764999        1.23461446E-17
   63.907501        1.23309601E-17
   64.050003        1.23150261E-17
   64.192497        1.23074499E-17
   64.334999        1.23121946E-17
   64.477501        1.23257968E-17
   64.620003        1.23395495E-17
   64.762497        1.23448170E-17
   64.904999        1.23383063E-17
   65.047501        1.23240738E-17
   65.190002        1.23110647E-17
   65.332497        1.23076650E-17
   65.474998        1.23165555E-17
   65.617500        1.23330007E-17
   65.760002        1.23476244E-17
   65.902496        1.23520416E-17
   66.044998        1.23439476E-17
   66.187500        1.23286059E-17
   66.330002        1.23158045E-17
   66.472504        1.23140856E-17
   66.614998        1.23257025E-17
   66.757500        1.23453059E-17
   66.900002        1.23631680E-17
   67.042503        1.23709890E-17
   67.184998        1.23668208E-17
   67.327499        1.23561461E-17
   67.470001        1.23484797E-17
   67.612503        1.23515469E-17
   67.754997        1.23665454E-17
   67.897499        1.23873457E-17
   68.040001        1.24041192E-17
   68.182503        1.24092105E-17
   68.324997        1.24017245E-17
   68.467499        1.23880628E-17
   68.610001        1.23781003E-17
   68.752502        1.23792666E-17
   68.894997        1.23921061E-17
   69.037498        1.24099533E-17
   69.180000        1.24229161E-17
   69.322502        1.24237672E-17
   69.464996        1.24122091E-17
   69.607498        1.23949797E-17
   69.750000        1.23817556E-17
   69.892502        1.23793567E-17
   70.035004        1.23877444E-17
   70.177498        1.24002050E-17
   70.320000        1.24075934E-17
   70.462502        1.24040382E-17
   70.605003        1.23906395E-17
   70.747498        1.23749305E-17
   70.889999        1.23664122E-17
   71.032501        1.23708583E-17
   71.175003        1.23868146E-17
   71.317497        1.24064163E-17
   71.459999        1.24200003E-17
   71.602501        1.24217539E-17
   71.745003        1.24129924E-17
   71.887497        1.24011356E-17
   72.029999        1.23950235E-17
   72.172501        1.23994572E-17
   72.315002        1.24122769E-17
   72.457497        1.24257351E-17
   72.599998        1.24313359E-17
   72.742500        1.24251577E-17
   72.885002        1.24104199E-17
   73.027496        1.23957027E-17
   73.169998        1.23898661E-17
   73.312500        1.23967424E-17
   73.455002        1.24127972E-17
   73.597504        1.24291985E-17
   73.739998        1.24370360E-17
   73.882500        1.24325701E-17
   74.025002        1.24193385E-17
   74.167503        1.24058654E-17
   74.309998        1.24003779E-17
   74.452499        1.24057488E-17
   74.595001        1.24177379E-17
   74.737503        1.24276153E-17
   74.879997        1.24275789E-17
   75.022499        1.24156708E-17
   75.165001        1.23971866E-17
   75.307503        1.23816803E-17
   75.449997        1.23773401E-17
   75.592499        1.23861016E-17
   75.735001        1.24024698E-17
   75.877502        1.24167627E-17
   76.019997        1.24208605E-17
   76.162498        1.24130172E-17
   76.305000        1.23988377E-17
   76.447502        1.23878428E-17
   76.589996        1.23876956E-17
   76.732498        1.23995582E-17
   76.875000        1.24173955E-17
   77.017502        1.24316453E-17
   77.160004        1.24350425E-17
   77.302498        1.24270669E-17
   77.445000        1.24143382E-17
   77.587502        1.24066702E-17
   77.730003        1.24111470E-17
   77.872498        1.24277865E-17
   78.014999        1.24493867E-17
   78.157501        1.24656879E-17
   78.300003        1.24693614E-17
   78.442497        1.24602525E-17
   78.584999        1.24453616E-17
   78.727501        1.24345826E-17
   78.870003        1.24347704E-17
   79.012497        1.24457082E-17
   79.154999        1.24603634E-17
   79.297501        1.24692705E-17
   79.440002        1.24663670E-17
   79.582497        1.24527558E-17
   79.724998        1.24361195E-17
   79.867500        1.24261404E-17
   80.010002        1.24286807E-17
   80.152496        1.24422291E-17
   80.294998        1.24587570E-17
   80.437500        1.24684656E-17
   80.580002        1.24655887E-17
   80.722504        1.24517574E-17
   80.864998        1.24349598E-17
   81.007500        1.24247152E-17
   81.150002        1.24264093E-17
   81.292503        1.24381800E-17
   81.434998        1.24521966E-17
   81.577499        1.24595321E-17
   81.720001        1.24556369E-17
   81.862503        1.24430976E-17
   82.004997        1.24300149E-17
   82.147499        1.24249981E-17
   82.290001        1.24318281E-17
   82.432503        1.24470309E-17
   82.574997        1.24618531E-17
   82.717499        1.24674531E-17
   82.860001        1.24601872E-17
   83.002502        1.24437916E-17
   83.144997        1.24271777E-17
   83.287498        1.24191417E-17
   83.430000        1.24232163E-17
   83.572502        1.24357423E-17
   83.714996        1.24482965E-17
   83.857498        1.24529800E-17
   84.000000        1.24473229E-17
   84.142502        1.24358168E-17
   84.285004        1.24271372E-17
   84.427498        1.24287386E-17
   84.570000        1.24421364E-17
   84.712502        1.24617530E-17
   84.855003        1.24780799E-17
   84.997498        1.24832730E-17
   85.139999        1.24758192E-17
   85.282501        1.24614503E-17
   85.425003        1.24497333E-17
   85.567497        1.24483891E-17
   85.709999        1.24587438E-17
   85.852501        1.24750483E-17
   85.995003        1.24880690E-17
   86.137497        1.24907623E-17
   86.279999        1.24825897E-17
   86.422501        1.24698553E-17
   86.565002        1.24618382E-17
   86.707497        1.24650618E-17
   86.849998        1.24791801E-17
   86.992500        1.24970042E-17
   87.135002        1.25086798E-17
   87.277496        1.25075582E-17
   87.419998        1.24942166E-17
   87.562500        1.24762088E-17
   87.705002        1.24636713E-17
   87.847504        1.24633942E-17
   87.989998        1.24749036E-17
   88.132500        1.24908797E-17
   88.275002        1.25016488E-17
   88.417503        1.25010358E-17
   88.559998        1.24900451E-17
   88.702499        1.24761724E-17
   88.845001        1.24687543E-17
   88.987503        1.24731896E-17
   89.129997        1.24875164E-17
   89.272499        1.25034380E-17
   89.415001        1.25112035E-17
   89.557503        1.25054191E-17
   89.699997        1.24883262E-17
   89.842499        1.24685508E-17
   89.985001        1.24560943E-17
   90.127502        1.24565344E-17
   90.269997        1.24679097E-17
   90.412498        1.24821033E-17
   90.555000        1.24898739E-17
   90.697502        1.24864708E-17
   90.839996        1.24744660E-17
   90.982498        1.24621095E-17
   91.125000        1.24582375E-17
   91.267502        1.24668220E-17
   91.410004        1.24844732E-17
   91.552498        1.25023932E-17
   91.695000        1.25116155E-17
   91.837502        1.25083523E-17
   91.980003        1.24962448E-17