  -30.000000        9.78447028E-19
  -29.857500        9.80199823E-19
  -29.715000        9.83398221E-19
  -29.572500        9.87514375E-19
  -29.430000        9.91906497E-19
  -29.287500        9.95948929E-19
  -29.145000        9.99149704E-19
  -29.002501        1.00123999E-18
  -28.860001        1.00221586E-18
  -28.717501        1.00232742E-18
  -28.575001        1.00202137E-18
  -28.432501        1.00184714E-18
  -28.290001        1.00234490E-18
  -28.147499        1.00393422E-18
  -28.004999        1.00682036E-18
  -27.862499        1.01094613E-18
  -27.719999        1.01599276E-18
  -27.577499        1.02143902E-18
  -27.434999        1.02666421E-18
  -27.292500        1.03107650E-18
  -27.150000        1.03423715E-18
  -27.007500        1.03595004E-18
  -26.865000        1.03630076E-18
  -26.722500        1.03563685E-18
  -26.580000        1.03449182E-18
  -26.437500        1.03347863E-18
  -26.295000        1.03316864E-18
  -26.152500        1.03398383E-18
  -26.010000        1.03611837E-18
  -25.867500        1.03950474E-18
  -25.725000        1.04382893E-18
  -25.582500        1.04859091E-18
  -25.440001        1.05320037E-18
  -25.297501        1.05709701E-18
  -25.155001        1.05986466E-18
  -25.012501        1.06131905E-18
  -24.870001        1.06154942E-18
  -24.727501        1.06089884E-18
  -24.584999        1.05989371E-18
  -24.442499        1.05912764E-18
  -24.299999        1.05913891E-18
  -24.157499        1.06029634E-18
  -24.014999        1.06272753E-18
  -23.872499        1.06629919E-18
  -23.730000        1.07064665E-18
  -23.587500        1.07525239E-18
  -23.445000        1.07954845E-18
  -23.302500        1.08302799E-18
  -23.160000        1.08534327E-18
  -23.017500        1.08637724E-18
  -22.875000        1.08626857E-18
  -22.732500        1.08538659E-18
  -22.590000        1.08426070E-18
  -22.447500        1.08347146E-18
  -22.305000        1.08352771E-18
  -22.162500        1.08475949E-18
  -22.020000        1.08724413E-18
  -21.877501        1.09079077E-18
  -21.735001        1.09498375E-18
  -21.592501        1.09927247E-18
  -21.450001        1.10309146E-18
  -21.307501        1.10597481E-18
  -21.165001        1.10765347E-18
  -21.022499        1.10810552E-18
  -20.879999        1.10755834E-18
  -20.737499        1.10644661E-18
  -20.594999        1.10532588E-18
  -20.452499        1.10476402E-18
  -20.309999        1.10523076E-18
  -20.167500        1.10699813E-18
  -20.025000        1.11008052E-18
  -19.882500        1.11422469E-18
  -19.740000        1.11895834E-18
  -19.597500        1.12368526E-18
  -19.455000        1.12781279E-18
  -19.312500        1.13087832E-18
  -19.170000        1.13265159E-18
  -19.027500        1.13318264E-18
  -18.885000        1.13279118E-18
  -18.742500        1.13200101E-18
  -18.600000        1.13143098E-18
  -18.457500        1.13167179E-18
  -18.315001        1.13316796E-18
  -18.172501        1.13613040E-18
  -18.030001        1.14048850E-18
  -17.887501        1.14589558E-18
  -17.745001        1.15178665E-18
  -17.602501        1.15747528E-18
  -17.459999        1.16228203E-18
  -17.317499        1.16566437E-18
  -17.174999        1.16732617E-18
  -17.032499        1.16727675E-18
  -16.889999        1.16583528E-18
  -16.747499        1.16356529E-18
  -16.605000        1.16116192E-18
  -16.462500        1.15931193E-18
  -16.320000        1.15856323E-18
  -16.177500        1.15922363E-18
  -16.035000        1.16131371E-18
  -15.892500        1.16457290E-18
  -15.750000        1.16852062E-18
  -15.607500        1.17255675E-18
  -15.465000        1.17607650E-18
  -15.322500        1.17858720E-18
  -15.180000        1.17980109E-18
  -15.037500        1.17969159E-18
  -14.895000        1.17849570E-18
  -14.752500        1.17666556E-18
  -14.610000        1.17477266E-18
  -14.467500        1.17338558E-18
  -14.325000        1.17294407E-18
  -14.182500        1.17366300E-18
  -14.040000        1.17548610E-18
  -13.897500        1.17809824E-18
  -13.755000        1.18099295E-18
  -13.612500        1.18358575E-18
  -13.470000        1.18533648E-18
  -13.327500        1.18585957E-18
  -13.185000        1.18500509E-18
  -13.042500        1.18289226E-18
  -12.900000        1.17989280E-18
  -12.757500        1.17656640E-18
  -12.615000        1.17356260E-18
  -12.472500        1.17150106E-18
  -12.330000        1.17085679E-18
  -12.187500        1.17186543E-18
  -12.045000        1.17447715E-18
  -11.902500        1.17836314E-18
  -11.760000        1.18298336E-18
  -11.617500        1.18769384E-18
  -11.475000        1.19187731E-18
  -11.332500        1.19506278E-18
  -11.190000        1.19701420E-18
  -11.047500        1.19776507E-18
  -10.905000        1.19759654E-18
  -10.762500        1.19696902E-18
  -10.620000        1.19642008E-18
  -10.477500        1.19645317E-18
  -10.335000        1.19743420E-18
  -10.192500        1.19951890E-18
  -10.050000        1.20261618E-18
  -9.9075003        1.20640084E-18
  -9.7650003        1.21037286E-18
  -9.6225004        1.21395465E-18
  -9.4799995        1.21660391E-18
  -9.3374996        1.21792864E-18
  -9.1949997        1.21776713E-18
  -9.0524998        1.21622361E-18
  -8.9099998        1.21364415E-18
  -8.7674999        1.21054543E-18
  -8.6250000        1.20750337E-18
  -8.4825001        1.20504096E-18
  -8.3400002        1.20352856E-18
  -8.1975002        1.20312169E-18
  -8.0550003        1.20374135E-18
  -7.9124999        1.20510661E-18
  -7.7700000        1.20679644E-18
  -7.6275001        1.20834306E-18
  -7.4850001        1.20932741E-18
  -7.3425002        1.20946844E-18
  -7.1999998        1.20868748E-18
  -7.0574999        1.20713010E-18
  -6.9150000        1.20514332E-18
  -6.7725000        1.20320627E-18
  -6.6300001        1.20182922E-18
  -6.4875002        1.20144107E-18
  -6.3449998        1.20229379E-18
  -6.2024999        1.20440465E-18
  -6.0599999        1.20755155E-18
  -5.9175000        1.21132143E-18
  -5.7750001        1.21519687E-18
  -5.6325002        1.21866204E-18
  -5.4899998        1.22130560E-18
  -5.3474998        1.22289803E-18
  -5.2049999        1.22343021E-18
  -5.0625000        1.22311475E-18
  -4.9200001        1.22233875E-18
  -4.7775002        1.22158901E-18
  -4.6350002        1.22135316E-18
  -4.4924998        1.22201625E-18
  -4.3499999        1.22377401E-18
  -4.2075000        1.22657846E-18
  -4.0650001        1.23013762E-18
  -3.9224999        1.23396157E-18
  -3.7800000        1.23746199E-18
  -3.6375000        1.24007185E-18
  -3.4949999        1.24136225E-18
  -3.3525000        1.24113457E-18
  -3.2100000        1.23946201E-18
  -3.0675001        1.23667513E-18
  -2.9250000        1.23329651E-18
  -2.7825000        1.22994602E-18
  -2.6400001        1.22722418E-18
  -2.4974999        1.22560684E-18
  -2.3550000        1.22536054E-18
  -2.2125001        1.22650123E-18
  -2.0699999        1.22879293E-18
  -1.9275000        1.23179973E-18
  -1.7850000        1.23497021E-18
  -1.6425000        1.23775543E-18
  -1.5000000        1.23972298E-18
  -1.3575000        1.24064953E-18
  -1.2150000        1.24056940E-18
  -1.0725000        1.23976445E-18
 -0.93000001        1.23870121E-18
 -0.78750002        1.23792345E-18
 -0.64499998        1.23793390E-18
 -0.50250000        1.23908089E-18
 -0.36000001        1.24148612E-18
 -0.21750000        1.24501425E-18
 -7.50000030E-02    1.24929574E-18
  6.75000027E-02    1.25379705E-18
  0.20999999        1.25791796E-18
  0.35249999        1.26110788E-18
  0.49500000        1.26297162E-18
  0.63749999        1.26335140E-18
  0.77999997        1.26236571E-18
  0.92250001        1.26039433E-18
   1.0650001        1.25800554E-18
   1.2075000        1.25584711E-18
   1.3500000        1.25451246E-18
   1.4924999        1.25441805E-18
   1.6350000        1.25571735E-18
   1.7775000        1.25827086E-18
   1.9200000        1.26167594E-18
   2.0625000        1.26535369E-18
   2.2049999        1.26866159E-18
   2.3475001        1.27102143E-18
   2.4900000        1.27202718E-18
   2.6324999        1.27152167E-18
   2.7750001        1.26962587E-18
   2.9175000        1.26671906E-18
   3.0599999        1.26337280E-18
   3.2025001        1.26024844E-18
   3.3450000        1.25797214E-18
   3.4875000        1.25701923E-18
   3.6300001        1.25762028E-18
   3.7725000        1.25971687E-18
   3.9150000        1.26298103E-18
   4.0574999        1.26688480E-18
   4.1999998        1.27081443E-18
   4.3425002        1.27419646E-18
   4.4850001        1.27660997E-18
   4.6275001        1.27785766E-18
   4.7700000        1.27798950E-18
   4.9124999        1.27727181E-18
   5.0549998        1.27611893E-18
   5.1975002        1.27499945E-18
   5.3400002        1.27433791E-18
   5.4825001        1.27442704E-18
   5.6250000        1.27536620E-18
   5.7674999        1.27703958E-18
   5.9099998        1.27913400E-18
   6.0524998        1.28120268E-18
   6.1950002        1.28276036E-18
   6.3375001        1.28339357E-18
   6.4800000        1.28285818E-18
   6.6224999        1.28114778E-18
   6.7649999        1.27850535E-18
   6.9074998        1.27538160E-18
   7.0500002        1.27234813E-18
   7.1925001        1.26998435E-18
   7.3350000        1.26876343E-18
   7.4775000        1.26896537E-18
   7.6199999        1.27063017E-18
   7.7624998        1.27355498E-18
   7.9050002        1.27733913E-18
   8.0474997        1.28145931E-18
   8.1899996        1.28536619E-18
   8.3325005        1.28858806E-18
   8.4750004        1.29081741E-18
   8.6175003        1.29197123E-18
   8.7600002        1.29220573E-18
   8.9025002        1.29188044E-18
   9.0450001        1.29148154E-18
   9.1875000        1.29151142E-18
   9.3299999        1.29237334E-18
   9.4724998        1.29427844E-18
   9.6149998        1.29719570E-18
   9.7574997        1.30085339E-18
   9.8999996        1.30479356E-18
   10.042500        1.30846283E-18
   10.185000        1.31132002E-18
   10.327500        1.31293964E-18
   10.470000        1.31309204E-18
   10.612500        1.31178696E-18
   10.755000        1.30927616E-18
   10.897500        1.30601065E-18
   11.040000        1.30256203E-18
   11.182500        1.29951770E-18
   11.325000        1.29737168E-18
   11.467500        1.29643159E-18
   11.610000        1.29676019E-18
   11.752500        1.29817270E-18
   11.895000        1.30028274E-18
   12.037500        1.30259367E-18
   12.180000        1.30461044E-18
   12.322500        1.30594551E-18
   12.465000        1.30639715E-18
   12.607500        1.30598449E-18
   12.750000        1.30493863E-18
   12.892500        1.30365153E-18
   13.035000        1.30259202E-18
   13.177500        1.30221545E-18
   13.320000        1.30286892E-18
   13.462500        1.30471860E-18
   13.605000        1.30770627E-18
   13.747500        1.31155018E-18
   13.890000        1.31579165E-18
   14.032500        1.31988020E-18
   14.175000        1.32328094E-18
   14.317500        1.32558940E-18
   14.460000        1.32661241E-18
   14.602500        1.32640686E-18
   14.745000        1.32526504E-18
   14.887500        1.32364645E-18
   15.030000        1.32208122E-18
   15.172500        1.32105996E-18
   15.315000        1.32094230E-18
   15.457500        1.32188828E-18
   15.600000        1.32383671E-18
   15.742500        1.32651750E-18
   15.885000        1.32950496E-18
   16.027500        1.33229856E-18
   16.170000        1.33441821E-18
   16.312500        1.33550636E-18
   16.455000        1.33540431E-18
   16.597500        1.33419735E-18
   16.740000        1.33220964E-18
   16.882500        1.32994430E-18
   17.025000        1.32798367E-18
   17.167500        1.32686915E-18
   17.309999        1.32698764E-18
   17.452499        1.32849322E-18
   17.594999        1.33127564E-18
   17.737499        1.33498658E-18
   17.879999        1.33910698E-18
   18.022499        1.34304518E-18
   18.165001        1.34624244E-18
   18.307501        1.34826935E-18
   18.450001        1.34889738E-18
   18.592501        1.34813669E-18
   18.735001        1.34623231E-18
   18.877501        1.34361801E-18
   19.020000        1.34083630E-18
   19.162500        1.33843148E-18
   19.305000        1.33684412E-18
   19.447500        1.33632320E-18
   19.590000        1.33688124E-18
   19.732500        1.33830151E-18
   19.875000        1.34019369E-18
   20.017500        1.34208938E-18
   20.160000        1.34354511E-18
   20.302500        1.34423953E-18
   20.445000        1.34403480E-18
   20.587500        1.34300041E-18
   20.730000        1.34139206E-18
   20.872499        1.33959708E-18
   21.014999        1.33805780E-18
   21.157499        1.33718089E-18
   21.299999        1.33725823E-18
   21.442499        1.33840284E-18
   21.584999        1.34052321E-18
   21.727501        1.34333987E-18
   21.870001        1.34643931E-18
   22.012501        1.34936619E-18
   22.155001        1.35172293E-18
   22.297501        1.35326107E-18
   22.440001        1.35393502E-18
   22.582500        1.35391279E-18
   22.725000        1.35353508E-18
   22.867500        1.35323843E-18
   23.010000        1.35345763E-18
   23.152500        1.35453503E-18
   23.295000        1.35664476E-18
   23.437500        1.35975454E-18
   23.580000        1.36361965E-18
   23.722500        1.36782297E-18
   23.865000        1.37184451E-18
   24.007500        1.37515582E-18
   24.150000        1.37732065E-18
   24.292500        1.37808600E-18
   24.434999        1.37743615E-18
   24.577499        1.37560529E-18
   24.719999        1.37303089E-18
   24.862499        1.37026325E-18
   25.004999        1.36785605E-18
   25.147499        1.36625050E-18
   25.290001        1.36569339E-18
   25.432501        1.36619642E-18
   25.575001        1.36754793E-18
   25.717501        1.36936804E-18
   25.860001        1.37119352E-18
   26.002501        1.37257398E-18
   26.145000        1.37316262E-18
   26.287500        1.37278884E-18
   26.430000        1.37149761E-18
   26.572500        1.36955095E-18
   26.715000        1.36738570E-18
   26.857500        1.36553292E-18
   27.000000        1.36451207E-18
   27.142500        1.36472114E-18
   27.285000        1.36634521E-18
   27.427500        1.36931334E-18
   27.570000        1.37330552E-18
   27.712500        1.37781810E-18
   27.855000        1.38226492E-18
   27.997499        1.38609663E-18
   28.139999        1.38890098E-18
   28.282499        1.39047376E-18
   28.424999        1.39084774E-18
   28.567499        1.39026655E-18
   28.709999        1.38913041E-18
   28.852501        1.38791136E-18
   28.995001        1.38705884E-18
   29.137501        1.38691016E-18
   29.280001        1.38761895E-18
   29.422501        1.38911904E-18
   29.565001        1.39113405E-18
   29.707500        1.39323127E-18
   29.850000        1.39491530E-18
   29.992500        1.39573938E-18
   30.135000        1.39541389E-18
   30.277500        1.39387957E-18
   30.420000        1.39132947E-18
   30.562500        1.38818009E-18
   30.705000        1.38498779E-18
   30.847500        1.38234402E-18
   30.990000        1.38076048E-18
   31.132500        1.38057509E-18
   31.275000        1.38188876E-18
   31.417500        1.38454752E-18
   31.559999        1.38816644E-18
   31.702499        1.39219822E-18
   31.844999        1.39602900E-18
   31.987499        1.39909256E-18
   32.130001        1.40097574E-18
   32.272499        1.40150297E-18
   32.415001        1.40077246E-18
   32.557499        1.39913630E-18
   32.700001        1.39713225E-18
   32.842499        1.39537408E-18
   32.985001        1.39442840E-18
   33.127499        1.39470592E-18
   33.270000        1.39638458E-18
   33.412498        1.39938321E-18
   33.555000        1.40338191E-18
   33.697498        1.40788611E-18
   33.840000        1.41231867E-18
   33.982498        1.41611935E-18
   34.125000        1.41884522E-18
   34.267502        1.42024337E-18
   34.410000        1.42029610E-18
   34.552502        1.41921735E-18
   34.695000        1.41740448E-18
   34.837502        1.41535525E-18
   34.980000        1.41356037E-18
   35.122501        1.41240118E-18
   35.264999        1.41207175E-18
   35.407501        1.41254676E-18
   35.549999        1.41359986E-18
   35.692501        1.41486421E-18
   35.834999        1.41592259E-18
   35.977501        1.41639997E-18
   36.119999        1.41604418E-18
   36.262501        1.41478025E-18
   36.404999        1.41272967E-18
   36.547501        1.41019612E-18
   36.689999        1.40761635E-18
   36.832500        1.40548626E-18
   36.974998        1.40427506E-18
   37.117500        1.40433410E-18
   37.259998        1.40582519E-18
   37.402500        1.40868052E-18
   37.544998        1.41261066E-18
   37.687500        1.41715684E-18
   37.830002        1.42178068E-18
   37.972500        1.42597232E-18
   38.115002        1.42934359E-18
   38.257500        1.43169351E-18
   38.400002        1.43302992E-18
   38.542500        1.43354619E-18
   38.685001        1.43356304E-18
   38.827499        1.43345179E-18
   38.970001        1.43355725E-18
   39.112499        1.43412604E-18
   39.255001        1.43526104E-18
   39.397499        1.43689947E-18
   39.540001        1.43882432E-18
   39.682499        1.44070585E-18
   39.825001        1.44217306E-18
   39.967499        1.44289726E-18
   40.110001        1.44267475E-18
   40.252499        1.44148723E-18
   40.395000        1.43952009E-18
   40.537498        1.43713708E-18
   40.680000        1.43480650E-18
   40.822498        1.43300976E-18
   40.965000        1.43214101E-18
   41.107498        1.43243032E-18
   41.250000        1.43389939E-18
   41.392502        1.43636532E-18
   41.535000        1.43947521E-18
   41.677502        1.44277566E-18
   41.820000        1.44579229E-18
   41.962502        1.44811367E-18
   42.105000        1.44946197E-18
   42.247501        1.44974135E-18
   42.389999        1.44905138E-18
   42.532501        1.44766399E-18
   42.674999        1.44596165E-18
   42.817501        1.44435485E-18
   42.959999        1.44318760E-18
   43.102501        1.44266244E-18
   43.244999        1.44279924E-18
   43.387501        1.44343679E-18
   43.529999        1.44428248E-18
   43.672501        1.44498517E-18
   43.814999        1.44522360E-18
   43.957500        1.44478230E-18
   44.099998        1.44360460E-18
   44.242500        1.44180827E-18
   44.384998        1.43967198E-18
   44.527500        1.43758500E-18
   44.669998        1.43597882E-18
   44.812500        1.43524408E-18
   44.955002        1.43565136E-18
   45.097500        1.43728846E-18
   45.240002        1.44003170E-18
   45.382500        1.44356086E-18
   45.525002        1.44741677E-18
   45.667500        1.45109100E-18
   45.810001        1.45412975E-18
   45.952499        1.45622376E-18
   46.095001        1.45726518E-18
   46.237499        1.45736010E-18
   46.380001        1.45679637E-18
   46.522499        1.45597622E-18
   46.665001        1.45533423E-18
   46.807499        1.45525223E-18
   46.950001        1.45599266E-18
   47.092499        1.45764796E-18
   47.235001        1.46012712E-18
   47.377499        1.46317083E-18
   47.520000        1.46639570E-18
   47.662498        1.46937190E-18
   47.805000        1.47170682E-18
   47.947498        1.47313257E-18
   48.090000        1.47356508E-18
   48.232498        1.47312440E-18
   48.375000        1.47210718E-18
   48.517502        1.47091552E-18
   48.660000        1.46996519E-18
   48.802502        1.46959048E-18
   48.945000        1.46997253E-18
   49.087502        1.47110856E-18
   49.230000        1.47281442E-18
   49.372501        1.47477008E-18
   49.514999        1.47658067E-18
   49.657501        1.47785153E-18
   49.799999        1.47826223E-18
   49.942501        1.47762778E-18
   50.084999        1.47594188E-18
   50.227501        1.47339003E-18
   50.369999        1.47032895E-18
   50.512501        1.46722940E-18
   50.654999        1.46458862E-18
   50.797501        1.46283097E-18
   50.939999        1.46222195E-18
   51.082500        1.46281204E-18
   51.224998        1.46443053E-18
   51.367500        1.46672316E-18
   51.509998        1.46923355E-18
   51.652500        1.47149403E-18
   51.794998        1.47311747E-18
   51.937500        1.47386504E-18
   52.080002        1.47368389E-18
   52.222500        1.47271050E-18
   52.365002        1.47124029E-18
   52.507500        1.46967609E-18
   52.650002        1.46845435E-18
   52.792500        1.46796124E-18
   52.935001        1.46845673E-18
   53.077499        1.47001482E-18
   53.220001        1.47250174E-18
   53.362499        1.47559881E-18
   53.505001        1.47886359E-18
   53.647499        1.48182376E-18
   53.790001        1.48407658E-18
   53.932499        1.48536781E-18
   54.075001        1.48564347E-18
   54.217499        1.48505131E-18
   54.360001        1.48390639E-18
   54.502499        1.48262633E-18
   54.645000        1.48165160E-18
   54.787498        1.48136312E-18
   54.930000        1.48201163E-18
   55.072498        1.48366909E-18
   55.215000        1.48620895E-18
   55.357498        1.48932101E-18
   55.500000        1.49256687E-18
   55.642502        1.49546345E-18
   55.785000        1.49758113E-18
   55.927502        1.49863507E-18
   56.070000        1.49854697E-18
   56.212502        1.49745819E-18
   56.355000        1.49569713E-18
   56.497501        1.49370652E-18
   56.639999        1.49194855E-18
   56.782501        1.49081428E-18
   56.924999        1.49055155E-18
   57.067501        1.49122580E-18
   57.209999        1.49271214E-18
   57.352501        1.49472271E-18
   57.494999        1.49686066E-18
   57.637501        1.49869255E-18
   57.779999        1.49983458E-18
   57.922501        1.50003455E-18
   58.064999        1.49923384E-18
   58.207500        1.49759334E-18
   58.349998        1.49547110E-18
   58.492500        1.49335042E-18
   58.634998        1.49173762E-18
   58.777500        1.49105313E-18
   58.919998        1.49153713E-18
   59.062500        1.49320628E-18
   59.205002        1.49585305E-18
   59.347500        1.49909715E-18
   59.490002        1.50246398E-18
   59.632500        1.50547606E-18
   59.775002        1.50773757E-18
   59.917500        1.50900202E-18
   60.060001        1.50921191E-18
   60.202499        1.50851367E-18
   60.345001        1.50723102E-18
   60.487499        1.50581137E-18
   60.630001        1.50473759E-18
   60.772499        1.50442864E-18
   60.915001        1.50514374E-18
   61.057499        1.50691752E-18
   61.200001        1.50954589E-18
   61.342499        1.51262672E-18
   61.485001        1.51564635E-18
   61.627499        1.51809304E-18
   61.770000        1.51956284E-18
   61.912498        1.51984005E-18
   62.055000        1.51893056E-18
   62.197498        1.51705369E-18
   62.340000        1.51459634E-18
   62.482498        1.51203953E-18
   62.625000        1.50987500E-18
   62.767502        1.50852122E-18
   62.910000        1.50824732E-18
   63.052502        1.50912227E-18
   63.195000        1.51099387E-18
   63.337502        1.51351522E-18
   63.480000        1.51620997E-18
   63.622501        1.51857084E-18
   63.764999        1.52016730E-18
   63.907501        1.52073630E-18
   64.050003        1.52023668E-18
   64.192497        1.51885043E-18
   64.334999        1.51693726E-18
   64.477501        1.51495658E-18
   64.620003        1.51337449E-18
   64.762497        1.51258009E-18
   64.904999        1.51282028E-18
   65.047501        1.51416414E-18
   65.190002        1.51649441E-18
   65.332497        1.51953213E-18
   65.474998        1.52288283E-18
   65.617500        1.52611039E-18
   65.760002        1.52881796E-18
   65.902496        1.53072688E-18
   66.044998        1.53173315E-18
   66.187500        1.53192081E-18
   66.330002        1.53153586E-18
   66.472504        1.53091724E-18
   66.614998        1.53041307E-18
   66.757500        1.53029654E-18
   66.900002        1.53071096E-18
   67.042503        1.53164505E-18
   67.184998        1.53294445E-18
   67.327499        1.53435210E-18
   67.470001        1.53556155E-18
   67.612503        1.53627478E-18
   67.754997        1.53626062E-18
   67.897499        1.53540273E-18
   68.040001        1.53373523E-18
   68.182503        1.53145335E-18
   68.324997        1.52889023E-18
   68.467499        1.52646401E-18
   68.610001        1.52459406E-18
   68.752502        1.52361334E-18
   68.894997        1.52369399E-18
   69.037498        1.52480789E-18
   69.180000        1.52673708E-18
   69.322502        1.52912525E-18
   69.464996        1.53155582E-18
   69.607498        1.53363608E-18
   69.750000        1.53506606E-18
   69.892502        1.53568366E-18
   70.035004        1.53548348E-18
   70.177498        1.53461039E-18
   70.320000        1.53333209E-18
   70.462502        1.53199753E-18
   70.605003        1.53097514E-18
   70.747498        1.53058585E-18
   70.889999        1.53103418E-18
   71.032501        1.53235519E-18
   71.175003        1.53440049E-18
   71.317497        1.53686260E-18
   71.459999        1.53934217E-18
   71.602501        1.54143877E-18
   71.745003        1.54284187E-18
   71.887497        1.54339422E-18
   72.029999        1.54311846E-18
   72.172501        1.54219905E-18
   72.315002        1.54093470E-18
   72.457497        1.53967542E-18
   72.599998        1.53875529E-18
   72.742500        1.53844086E-18
   72.885002        1.53888609E-18
   73.027496        1.54010990E-18
   73.169998        1.54198750E-18
   73.312500        1.54427165E-18
   73.455002        1.54663832E-18
   73.597504        1.54875311E-18
   73.739998        1.55034802E-18
   73.882500        1.55128584E-18
   74.025002        1.55159468E-18
   74.167503        1.55145872E-18
   74.309998        1.55116910E-18
   74.452499        1.55104554E-18
   74.595001        1.55135666E-18
   74.737503        1.55225333E-18
   74.879997        1.55373605E-18
   75.022499        1.55565728E-18
   75.165001        1.55775025E-18
   75.307503        1.55967924E-18
   75.449997        1.56110126E-18
   75.592499        1.56172899E-18
   75.735001        1.56138830E-18
   75.877502        1.56006656E-18
   76.019997        1.55793016E-18
   76.162498        1.55531193E-18
   76.305000        1.55265627E-18
   76.447502        1.55043322E-18
   76.589996        1.54904066E-18
   76.732498        1.54871651E-18
   76.875000        1.54948620E-18
   77.017502        1.55115907E-18
   77.160004        1.55337581E-18
   77.302498        1.55568768E-18
   77.445000        1.55764747E-18
   77.587502        1.55889559E-18
   77.730003        1.55922026E-18
   77.872498        1.55859367E-18
   78.014999        1.55717702E-18
   78.157501        1.55529611E-18
   78.300003        1.55339246E-18
   78.442497        1.55194748E-18
   78.584999        1.55138996E-18
   78.727501        1.55200776E-18
   78.870003        1.55387967E-18
   79.012497        1.55684790E-18
   79.154999        1.56055109E-18
   79.297501        1.56449736E-18
   79.440002        1.56817800E-18
   79.582497        1.57117136E-18
   79.724998        1.57322784E-18
   79.867500        1.57430565E-18
   80.010002        1.57455846E-18
   80.152496        1.57428414E-18
   80.294998        1.57385546E-18
   80.437500        1.57364081E-18
   80.580002        1.57393125E-18
   80.722504        1.57488354E-18
   80.864998        1.57648145E-18
   81.007500        1.57852531E-18
   81.150002        1.58065685E-18
   81.292503        1.58242133E-18
   81.434998        1.58335966E-18
   81.577499        1.58311326E-18
   81.720001        1.58151681E-18
   81.862503        1.57864949E-18
   82.004997        1.57483008E-18
   82.147499        1.57055552E-18
   82.290001        1.56640153E-18
   82.432503        1.56290814E-18
   82.574997        1.56048274E-18
   82.717499        1.55933585E-18
   82.860001        1.55945755E-18
   83.002502        1.56063680E-18
   83.144997        1.56250799E-18
   83.287498        1.56461937E-18
   83.430000        1.56651444E-18
   83.572502        1.56781311E-18
   83.714996        1.56828709E-18
   83.857498        1.56790782E-18
   84.000000        1.56685358E-18
   84.142502        1.56547633E-18
   84.285004        1.56421839E-18
   84.427498        1.56351053E-18
   84.570000        1.56366842E-18
   84.712502        1.56481996E-18
   84.855003        1.56687664E-18
   84.997498        1.56956001E-18
   85.139999        1.57246156E-18
   85.282501        1.57512880E-18
   85.425003        1.57714950E-18
   85.567497        1.57822483E-18
   85.709999        1.57821635E-18
   85.852501        1.57717318E-18
   85.995003        1.57532412E-18
   86.137497        1.57304565E-18
   86.279999        1.57079561E-18
   86.422501        1.56903206E-18
   86.565002        1.56811813E-18
   86.707497        1.56825007E-18
   86.849998        1.56941464E-18
   86.992500        1.57139853E-18
   87.135002        1.57384491E-18
   87.277496        1.57633969E-18
   87.419998        1.57850618E-18
   87.562500        1.58008175E-18
   87.705002        1.58096084E-18
   87.847504        1.58120144E-18
   87.989998        1.58099961E-18
   88.132500        1.58064444E-18
   88.275002        1.58046401E-18
   88.417503        1.58076190E-18
   88.559998        1.58176134E-18
   88.702499        1.58355343E-18
   88.845001        1.58606485E-18
   88.987503        1.58905656E-18
   89.129997        1.59216489E-18
   89.272499        1.59497152E-18
   89.415001        1.59710244E-18
   89.557503        1.59831788E-18
   89.699997        1.59857430E-18
   89.842499        1.59803622E-18
   89.985001        1.59703802E-18
   90.127502        1.59600736E-18
   90.269997        1.59537477E-18
   90.412498        1.59548665E-18
   90.555000        1.59654513E-18
   90.697502        1.59857606E-18
   90.839996        1.60142415E-18
   90.982498        1.60477526E-18
   91.125000        1.60820062E-18
   91.267502        1.61122014E-18
   91.410004        1.61338497E-18
   91.552498        1.61436363E-18
   91.695000        1.61401539E-18
   91.837502        1.61243154E-18
   91.980003        1.60992601E-18