  -30.000000        4.89664411E-18
  -29.857500        4.90199184E-18
  -29.715000        4.91176994E-18
  -29.572500        4.92439065E-18
  -29.430000        4.93790388E-18
  -29.287500        4.95037901E-18
  -29.145000        4.96027292E-18
  -29.002501        4.96671913E-18
  -28.860001        4.96968127E-18
  -28.717501        4.96993521E-18
  -28.575001        4.96889007E-18
  -28.432501        4.96827920E-18
  -28.290001        4.96979376E-18
  -28.147499        4.97472252E-18
  -28.004999        4.98367096E-18
  -27.862499        4.99642733E-18
  -27.719999        5.01199114E-18
  -27.577499        5.02876512E-18
  -27.434999        5.04486702E-18
  -27.292500        5.05850640E-18
  -27.150000        5.06834324E-18
  -27.007500        5.07375631E-18
  -26.865000        5.07496812E-18
  -26.722500        5.07300481E-18
  -26.580000        5.06949012E-18
  -26.437500        5.06632450E-18
  -26.295000        5.06530872E-18
  -26.152500        5.06778902E-18
  -26.010000        5.07439489E-18
  -25.867500        5.08492035E-18
  -25.725000        5.09837361E-18
  -25.582500        5.11318056E-18
  -25.440001        5.12750526E-18
  -25.297501        5.13962346E-18
  -25.155001        5.14826873E-18
  -25.012501        5.15288813E-18
  -24.870001        5.15375087E-18
  -24.727501        5.15188972E-18
  -24.584999        5.14888912E-18
  -24.442499        5.14655771E-18
  -24.299999        5.14656102E-18
  -24.157499        5.15007943E-18
  -24.014999        5.15756831E-18
  -23.872499        5.16866618E-18
  -23.730000        5.18226917E-18
  -23.587500        5.19675558E-18
  -23.445000        5.21031348E-18
  -23.302500        5.22130837E-18
  -23.160000        5.22861403E-18
  -23.017500        5.23183962E-18
  -22.875000        5.23141197E-18
  -22.732500        5.22848995E-18
  -22.590000        5.22473042E-18
  -22.447500        5.22195564E-18
  -22.305000        5.22178276E-18
  -22.162500        5.22529662E-18
  -22.020000        5.23283017E-18
  -21.877501        5.24389330E-18
  -21.735001        5.25727708E-18
  -21.592501        5.27129738E-18
  -21.450001        5.28413646E-18
  -21.307501        5.29421524E-18
  -21.165001        5.30051009E-18
  -21.022499        5.30275754E-18
  -20.879999        5.30150642E-18
  -20.737499        5.29800207E-18
  -20.594999        5.29393441E-18
  -20.452499        5.29108933E-18
  -20.309999        5.29099006E-18
  -20.167500        5.29458416E-18
  -20.025000        5.30205071E-18
  -19.882500        5.31276353E-18
  -19.740000        5.32541939E-18
  -19.597500        5.33830604E-18
  -19.455000        5.34965661E-18
  -19.312500        5.35801858E-18
  -19.170000        5.36255814E-18
  -19.027500        5.36324015E-18
  -18.885000        5.36084216E-18
  -18.742500        5.35680138E-18
  -18.600000        5.35292604E-18
  -18.457500        5.35102807E-18
  -18.315001        5.35255050E-18
  -18.172501        5.35826921E-18
  -18.030001        5.36812714E-18
  -17.887501        5.38122927E-18
  -17.745001        5.39601098E-18
  -17.602501        5.41053793E-18
  -17.459999        5.42288236E-18
  -17.317499        5.43150282E-18
  -17.174999        5.43555146E-18
  -17.032499        5.43504398E-18
  -16.889999        5.43085803E-18
  -16.747499        5.42456154E-18
  -16.605000        5.41810291E-18
  -16.462500        5.41342438E-18
  -16.320000        5.41207814E-18
  -16.177500        5.41492488E-18
  -16.035000        5.42197081E-18
  -15.892500        5.43237798E-18
  -15.750000        5.44464052E-18
  -15.607500        5.45689520E-18
  -15.465000        5.46729741E-18
  -15.322500        5.47439296E-18
  -15.180000        5.47740804E-18
  -15.037500        5.47640136E-18
  -14.895000        5.47224850E-18
  -14.752500        5.46646030E-18
  -14.610000        5.46087559E-18
  -14.467500        5.45727736E-18
  -14.325000        5.45703044E-18
  -14.182500        5.46079329E-18
  -14.040000        5.46838101E-18
  -13.897500        5.47879687E-18
  -13.755000        5.49042993E-18
  -13.612500        5.50138180E-18
  -13.470000        5.50984592E-18
  -13.327500        5.51447235E-18
  -13.185000        5.51463902E-18
  -13.042500        5.51057839E-18
  -12.900000        5.50333808E-18
  -12.757500        5.49457658E-18
  -12.615000        5.48624357E-18
  -12.472500        5.48020391E-18
  -12.330000        5.47787415E-18
  -12.187500        5.47995327E-18
  -12.045000        5.48629733E-18
  -11.902500        5.49596004E-18
  -11.760000        5.50739747E-18
  -11.617500        5.51879188E-18
  -11.475000        5.52842936E-18
  -11.332500        5.53504929E-18
  -11.190000        5.53810241E-18
  -11.047500        5.53785261E-18
  -10.905000        5.53531482E-18
  -10.762500        5.53203256E-18
  -10.620000        5.52975368E-18
  -10.477500        5.53005560E-18
  -10.335000        5.53401201E-18
  -10.192500        5.54195253E-18
  -10.050000        5.55337175E-18
  -9.9075003        5.56700535E-18
  -9.7650003        5.58105708E-18
  -9.6225004        5.59353882E-18
  -9.4799995        5.60265021E-18
  -9.3374996        5.60713394E-18
  -9.1949997        5.60652183E-18
  -9.0524998        5.60122746E-18
  -8.9099998        5.59247093E-18
  -8.7674999        5.58203687E-18
  -8.6250000        5.57193121E-18
  -8.4825001        5.56399399E-18
  -8.3400002        5.55955410E-18
  -8.1975002        5.55919097E-18
  -8.0550003        5.56265107E-18
  -7.9124999        5.56892647E-18
  -7.7700000        5.57648235E-18
  -7.6275001        5.58358825E-18
  -7.4850001        5.58867706E-18
  -7.3425002        5.59067057E-18
  -7.1999998        5.58920481E-18
  -7.0574999        5.58470494E-18
  -6.9150000        5.57830174E-18
  -6.7725000        5.57160033E-18
  -6.6300001        5.56634567E-18
  -6.4875002        5.56406141E-18
  -6.3449998        5.56573231E-18
  -6.2024999        5.57159496E-18
  -6.0599999        5.58108479E-18
  -5.9175000        5.59294780E-18
  -5.7750001        5.60549240E-18
  -5.6325002        5.61692694E-18
  -5.4899998        5.62571490E-18
  -5.3474998        5.63087568E-18
  -5.2049999        5.63217353E-18
  -5.0625000        5.63014942E-18
  -4.9200001        5.62600814E-18
  -4.7775002        5.62136104E-18
  -4.6350002        5.61789805E-18
  -4.4924998        5.61703406E-18
  -4.3499999        5.61961362E-18
  -4.2075000        5.62573310E-18
  -4.0650001        5.63471752E-18
  -3.9224999        5.64525498E-18
  -3.7800000        5.65567332E-18
  -3.6375000        5.66428799E-18
  -3.4949999        5.66975896E-18
  -3.3525000        5.67137610E-18
  -3.2100000        5.66921344E-18
  -3.0675001        5.66412669E-18
  -2.9250000        5.65758452E-18
  -2.7825000        5.65138356E-18
  -2.6400001        5.64729025E-18
  -2.4974999        5.64668724E-18
  -2.3550000        5.65029540E-18
  -2.2125001        5.65801879E-18
  -2.0699999        5.66895412E-18
  -1.9275000        5.68155538E-18
  -1.7850000        5.69393497E-18
  -1.6425000        5.70423254E-18
  -1.5000000        5.71098482E-18
  -1.3575000        5.71341631E-18
  -1.2150000        5.71159403E-18
  -1.0725000        5.70641092E-18
 -0.93000001        5.69940098E-18
 -0.78750002        5.69242826E-18
 -0.64499998        5.68731008E-18
 -0.50250000        5.68545720E-18
 -0.36000001        5.68759380E-18
 -0.21750000        5.69362312E-18
 -7.50000030E-02    5.70264932E-18
  6.75000027E-02    5.71316402E-18
  0.20999999        5.72334744E-18
  0.35249999        5.73142941E-18
  0.49500000        5.73604922E-18
  0.63749999        5.73652815E-18
  0.77999997        5.73301305E-18
  0.92250001        5.72644979E-18
   1.0650001        5.71839635E-18
   1.2075000        5.71070895E-18
   1.3500000        5.70516643E-18
   1.4924999        5.70311295E-18
   1.6350000        5.70518587E-18
   1.7775000        5.71120030E-18
   1.9200000        5.72019423E-18
   2.0625000        5.73063077E-18
   2.2049999        5.74071617E-18
   2.3475001        5.74876050E-18
   2.4900000        5.75351307E-18
   2.6324999        5.75441056E-18
   2.7750001        5.75168376E-18
   2.9175000        5.74631287E-18
   3.0599999        5.73983067E-18
   3.2025001        5.73401104E-18
   3.3450000        5.73051372E-18
   3.4875000        5.73054350E-18
   3.6300001        5.73460372E-18
   3.7725000        5.74239204E-18
   3.9150000        5.75286332E-18
   4.0574999        5.76444757E-18
   4.1999998        5.77537793E-18
   4.3425002        5.78405258E-18
   4.4850001        5.78936225E-18
   4.6275001        5.79091197E-18
   4.7700000        5.78909424E-18
   4.9124999        5.78499970E-18
   5.0549998        5.78019212E-18
   5.1975002        5.77638751E-18
   5.3400002        5.77510207E-18
   5.4825001        5.77734083E-18
   5.6250000        5.78338215E-18
   5.7674999        5.79270406E-18
   5.9099998        5.80407696E-18
   6.0524998        5.81579729E-18
   6.1950002        5.82602413E-18
   6.3375001        5.83315402E-18
   6.4800000        5.83614924E-18
   6.6224999        5.83475461E-18
   6.7649999        5.82955743E-18
   6.9074998        5.82187417E-18
   7.0500002        5.81349566E-18
   7.1925001        5.80633517E-18
   7.3350000        5.80206236E-18
   7.4775000        5.80178609E-18
   7.6199999        5.80585002E-18
   7.7624998        5.81377938E-18
   7.9050002        5.82438177E-18
   8.0474997        5.83598876E-18
   8.1899996        5.84678637E-18
   8.3325005        5.85517356E-18
   8.4750004        5.86007916E-18
   8.6175003        5.86117021E-18
   8.7600002        5.85890953E-18
   8.9025002        5.85444937E-18
   9.0450001        5.84937834E-18
   9.1875000        5.84538057E-18
   9.3299999        5.84387800E-18
   9.4724998        5.84573006E-18
   9.6149998        5.85105545E-18
   9.7574997        5.85921145E-18
   9.8999996        5.86892875E-18
   10.042500        5.87857037E-18
   10.185000        5.88646539E-18
   10.327500        5.89124526E-18
   10.470000        5.89212579E-18
   10.612500        5.88906770E-18
   10.755000        5.88280057E-18
   10.897500        5.87468510E-18
   11.040000        5.86645341E-18
   11.182500        5.85986326E-18
   11.325000        5.85634816E-18
   11.467500        5.85672577E-18
   11.610000        5.86103414E-18
   11.752500        5.86853336E-18
   11.895000        5.87786644E-18
   12.037500        5.88734965E-18
   12.180000        5.89532698E-18
   12.322500        5.90051216E-18
   12.465000        5.90225131E-18
   12.607500        5.90065237E-18
   12.750000        5.89656113E-18
   12.892500        5.89138960E-18
   13.035000        5.88683142E-18
   13.177500        5.88451573E-18
   13.320000        5.88567502E-18
   13.462500        5.89087882E-18
   13.605000        5.89989881E-18
   13.747500        5.91172956E-18
   13.890000        5.92477420E-18
   14.032500        5.93715461E-18
   14.175000        5.94708615E-18
   14.317500        5.95323996E-18
   14.460000        5.95501178E-18
   14.602500        5.95264687E-18
   14.745000        5.94718541E-18
   14.887500        5.94025488E-18
   15.030000        5.93374828E-18
   15.172500        5.92944942E-18
   15.315000        5.92869131E-18
   15.457500        5.93210012E-18
   15.600000        5.93947774E-18
   15.742500        5.94984439E-18
   15.885000        5.96162757E-18
   16.027500        5.97297236E-18
   16.170000        5.98211022E-18
   16.312500        5.98770899E-18
   16.455000        5.98914787E-18
   16.597500        5.98664151E-18
   16.740000        5.98119701E-18
   16.882500        5.97440296E-18
   17.025000        5.96810150E-18
   17.167500        5.96401027E-18
   17.309999        5.96337375E-18
   17.452499        5.96671763E-18
   17.594999        5.97375280E-18
   17.737499        5.98344446E-18
   17.879999        5.99422304E-18
   18.022499        6.00429975E-18
   18.165001        6.01201942E-18
   18.307501        6.01619047E-18
   18.450001        6.01631827E-18
   18.592501        6.01270928E-18
   18.735001        6.00641692E-18
   18.877501        5.99903103E-18
   19.020000        5.99236064E-18
   19.162500        5.98806385E-18
   19.305000        5.98731277E-18
   19.447500        5.99055367E-18
   19.590000        5.99742340E-18
   19.732500        6.00683217E-18
   19.875000        6.01720170E-18
   20.017500        6.02679038E-18
   20.160000        6.03404930E-18
   20.302500        6.03793085E-18
   20.445000        6.03809049E-18
   20.587500        6.03494638E-18
   20.730000        6.02959411E-18
   20.872499        6.02358175E-18
   21.014999        6.01860046E-18
   21.157499        6.01614291E-18
   21.299999        6.01719426E-18
   21.442499        6.02202334E-18
   21.584999        6.03011813E-18
   21.727501        6.04028583E-18
   21.870001        6.05089194E-18
   22.012501        6.06020145E-18
   22.155001        6.06673948E-18
   22.297501        6.06959491E-18
   22.440001        6.06860601E-18
   22.582500        6.06438450E-18
   22.725000        6.05818602E-18
   22.867500        6.05165253E-18
   23.010000        6.04648183E-18
   23.152500        6.04409376E-18
   23.295000        6.04534776E-18
   23.437500        6.05037247E-18
   23.580000        6.05853592E-18
   23.722500        6.06856259E-18
   23.865000        6.07877868E-18
   24.007500        6.08744753E-18
   24.150000        6.09311951E-18
   24.292500        6.09493559E-18
   24.434999        6.09280560E-18
   24.577499        6.08743430E-18
   24.719999        6.08017372E-18
   24.862499        6.07274647E-18
   25.004999        6.06689540E-18
   25.147499        6.06403212E-18
   25.290001        6.06496559E-18
   25.432501        6.06975414E-18
   25.575001        6.07770831E-18
   25.717501        6.08753935E-18
   25.860001        6.09762020E-18
   26.002501        6.10630808E-18
   26.145000        6.11227247E-18
   26.287500        6.11475690E-18
   26.430000        6.11373782E-18
   26.572500        6.10993361E-18
   26.715000        6.10466116E-18
   26.857500        6.09956573E-18
   27.000000        6.09627438E-18
   27.142500        6.09605352E-18
   27.285000        6.09953843E-18
   27.427500        6.10660173E-18
   27.570000        6.11637776E-18
   27.712500        6.12744833E-18
   27.855000        6.13813220E-18
   27.997499        6.14682835E-18
   28.139999        6.15232869E-18
   28.282499        6.15405501E-18
   28.424999        6.15216821E-18
   28.567499        6.14753517E-18
   28.709999        6.14155755E-18
   28.852501        6.13589716E-18
   28.995001        6.13214383E-18
   29.137501        6.13149077E-18
   29.280001        6.13448475E-18
   29.422501        6.14090656E-18
   29.565001        6.14980827E-18
   29.707500        6.15971003E-18
   29.850000        6.16890704E-18
   29.992500        6.17582847E-18
   30.135000        6.17936178E-18
   30.277500        6.17908219E-18
   30.420000        6.17532886E-18
   30.562500        6.16913203E-18
   30.705000        6.16199884E-18
   30.847500        6.15561259E-18
   30.990000        6.15149654E-18
   31.132500        6.15071734E-18
   31.275000        6.15367079E-18
   31.417500        6.15999417E-18
   31.559999        6.16863242E-18
   31.702499        6.17803953E-18
   31.844999        6.18648918E-18
   31.987499        6.19243082E-18
   32.130001        6.19481558E-18
   32.272499        6.19332500E-18
   32.415001        6.18844546E-18
   32.557499        6.18137431E-18
   32.700001        6.17377624E-18
   32.842499        6.16744583E-18
   32.985001        6.16394561E-18
   33.127499        6.16430378E-18
   33.270000        6.16881398E-18
   33.412498        6.17698239E-18
   33.555000        6.18762614E-18
   33.697498        6.19909500E-18
   33.840000        6.20958075E-18
   33.982498        6.21746254E-18
   34.125000        6.22161499E-18
   34.267502        6.22163112E-18
   34.410000        6.21790426E-18
   34.552502        6.21155316E-18
   34.695000        6.20419457E-18
   34.837502        6.19761145E-18
   34.980000        6.19339283E-18
   35.122501        6.19260701E-18
   35.264999        6.19560264E-18
   35.407501        6.20195415E-18
   35.549999        6.21057254E-18
   35.692501        6.21994408E-18
   35.834999        6.22844171E-18
   35.977501        6.23465549E-18
   36.119999        6.23766271E-18
   36.262501        6.23720941E-18
   36.404999        6.23375469E-18
   36.547501        6.22838588E-18
   36.689999        6.22260264E-18
   36.832500        6.21802006E-18
   36.974998        6.21603772E-18
   37.117500        6.21754898E-18
   37.259998        6.22274574E-18
   37.402500        6.23107421E-18
   37.544998        6.24135193E-18
   37.687500        6.25201925E-18
   37.830002        6.26146483E-18
   37.972500        6.26836641E-18
   38.115002        6.27195555E-18
   38.257500        6.27216234E-18
   38.400002        6.26961587E-18
   38.542500        6.26550478E-18
   38.685001        6.26132834E-18
   38.827499        6.25859451E-18
   38.970001        6.25851345E-18
   39.112499        6.26174731E-18
   39.255001        6.26826219E-18
   39.397499        6.27731775E-18
   39.540001        6.28759546E-18
   39.682499        6.29746166E-18
   39.825001        6.30529672E-18
   39.967499        6.30983876E-18
   40.110001        6.31045005E-18
   40.252499        6.30726168E-18
   40.395000        6.30114510E-18
   40.537498        6.29353255E-18
   40.680000        6.28611895E-18
   40.822498        6.28052059E-18
   40.965000        6.27795343E-18
   41.107498        6.27899982E-18
   41.250000        6.28350133E-18
   41.392502        6.29059441E-18
   41.535000        6.29887945E-18
   41.677502        6.30669052E-18
   41.820000        6.31242619E-18
   41.962502        6.31487133E-18
   42.105000        6.31345065E-18
   42.247501        6.30836473E-18
   42.389999        6.30056566E-18
   42.532501        6.29157379E-18
   42.674999        6.28317749E-18
   42.817501        6.27706959E-18
   42.959999        6.27450823E-18
   43.102501        6.27607739E-18
   43.244999        6.28158765E-18
   43.387501        6.29013946E-18
   43.529999        6.30032122E-18
   43.672501        6.31050175E-18
   43.814999        6.31914744E-18
   43.957500        6.32511224E-18
   44.099998        6.32784897E-18
   44.242500        6.32750486E-18
   44.384998        6.32488270E-18
   44.527500        6.32127412E-18
   44.669998        6.31819246E-18
   44.812500        6.31705013E-18
   44.955002        6.31885090E-18
   45.097500        6.32396577E-18
   45.240002        6.33204112E-18
   45.382500        6.34206696E-18
   45.525002        6.35259118E-18
   45.667500        6.36202145E-18
   45.810001        6.36895695E-18
   45.952499        6.37246626E-18
   46.095001        6.37226691E-18
   46.237499        6.36876422E-18
   46.380001        6.36296485E-18
   46.522499        6.35627792E-18
   46.665001        6.35024323E-18
   46.807499        6.34624133E-18
   46.950001        6.34523010E-18
   47.092499        6.34755282E-18
   47.235001        6.35287118E-18
   47.377499        6.36022358E-18
   47.520000        6.36822448E-18
   47.662498        6.37535560E-18
   47.805000        6.38029511E-18
   47.947498        6.38220549E-18
   48.090000        6.38091881E-18
   48.232498        6.37697109E-18
   48.375000        6.37148895E-18
   48.517502        6.36595056E-18
   48.660000        6.36188166E-18
   48.802502        6.36054783E-18
   48.945000        6.36270470E-18
   49.087502        6.36844823E-18
   49.230000        6.37718574E-18
   49.372501        6.38773147E-18
   49.514999        6.39851708E-18
   49.657501        6.40787414E-18
   49.799999        6.41435469E-18
   49.942501        6.41701656E-18
   50.084999        6.41562110E-18
   50.227501        6.41069359E-18
   50.369999        6.40342308E-18
   50.512501        6.39542797E-18
   50.654999        6.38842299E-18
   50.797501        6.38387846E-18
   50.939999        6.38273571E-18
   51.082500        6.38524041E-18
   51.224998        6.39092025E-18
   51.367500        6.39870733E-18
   51.509998        6.40716111E-18
   51.652500        6.41475959E-18
   51.794998        6.42019417E-18
   51.937500        6.42262484E-18
   52.080002        6.42184316E-18
   52.222500        6.41832267E-18
   52.365002        6.41313336E-18
   52.507500        6.40773187E-18
   52.650002        6.40366421E-18
   52.792500        6.40224187E-18
   52.935001        6.40425688E-18
   53.077499        6.40981636E-18
   53.220001        6.41831771E-18
   53.362499        6.42858716E-18
   53.505001        6.43912916E-18
   53.647499        6.44844073E-18
   53.790001        6.45530509E-18
   53.932499        6.45902037E-18
   54.075001        6.45951420E-18
   54.217499        6.45733541E-18
   54.360001        6.45352624E-18
   54.502499        6.44940688E-18
   54.645000        6.44631157E-18
   54.787498        6.44530820E-18
   54.930000        6.44697125E-18
   55.072498        6.45124943E-18
   55.215000        6.45745824E-18
   55.357498        6.46441607E-18
   55.500000        6.47070099E-18
   55.642502        6.47496552E-18
   55.785000        6.47624310E-18
   55.927502        6.47417060E-18
   56.070000        6.46907393E-18
   56.212502        6.46190517E-18
   56.355000        6.45404778E-18
   56.497501        6.44704114E-18
   56.639999        6.44228444E-18
   56.782501        6.44077277E-18
   56.924999        6.44291517E-18
   57.067501        6.44845480E-18
   57.209999        6.45651319E-18
   57.352501        6.46574742E-18
   57.494999        6.47460032E-18
   57.637501        6.48160489E-18
   57.779999        6.48568413E-18
   57.922501        6.48637813E-18
   58.064999        6.48395118E-18
   58.207500        6.47933924E-18
   58.349998        6.47395181E-18
   58.492500        6.46936675E-18
   58.634998        6.46699564E-18
   58.777500        6.46778973E-18
   58.919998        6.47205385E-18
   59.062500        6.47939756E-18
   59.205002        6.48881956E-18
   59.347500        6.49890951E-18
   59.490002        6.50811478E-18
   59.632500        6.51503208E-18
   59.775002        6.51867002E-18
   59.917500        6.51864810E-18
   60.060001        6.51527941E-18
   60.202499        6.50952926E-18
   60.345001        6.50283696E-18
   60.487499        6.49682956E-18
   60.630001        6.49298855E-18
   60.772499        6.49233838E-18
   60.915001        6.49523269E-18
   61.057499        6.50128806E-18
   61.200001        6.50948005E-18
   61.342499        6.51837306E-18
   61.485001        6.52642691E-18
   61.627499        6.53231395E-18
   61.770000        6.53517848E-18
   61.912498        6.53479425E-18
   62.055000        6.53160258E-18
   62.197498        6.52662461E-18
   62.340000        6.52127068E-18
   62.482498        6.51706777E-18
   62.625000        6.51535923E-18
   62.767502        6.51701980E-18
   62.910000        6.52225999E-18
   63.052502        6.53055454E-18
   63.195000        6.54072928E-18
   63.337502        6.55119352E-18
   63.480000        6.56026811E-18
   63.622501        6.56653896E-18
   63.764999        6.56914376E-18
   63.907501        6.56793607E-18
   64.050003        6.56349742E-18
   64.192497        6.55699909E-18
   64.334999        6.54995441E-18
   64.477501        6.54392054E-18
   64.620003        6.54019823E-18
   64.762497        6.53959232E-18
   64.904999        6.54225625E-18
   65.047501        6.54766146E-18
   65.190002        6.55469498E-18
   65.332497        6.56187325E-18
   65.474998        6.56764780E-18
   65.617500        6.57073608E-18
   65.760002        6.57041100E-18
   65.902496        6.56667462E-18
   66.044998        6.56027473E-18
   66.187500        6.55255134E-18
   66.330002        6.54515635E-18
   66.472504        6.53970895E-18
   66.614998        6.53746646E-18
   66.757500        6.53908319E-18
   66.900002        6.54449584E-18
   67.042503        6.55295046E-18
   67.184998        6.56314918E-18
   67.327499        6.57349390E-18
   67.470001        6.58237947E-18
   67.612503        6.58848903E-18
   67.754997        6.59104543E-18
   67.897499        6.58996513E-18
   68.040001        6.58588837E-18
   68.182503        6.58005386E-18
   68.324997        6.57404646E-18
   68.467499        6.56946263E-18
   68.610001        6.56757335E-18
   68.752502        6.56905525E-18
   68.894997        6.57386406E-18
   69.037498        6.58126443E-18
   69.180000        6.59000980E-18
   69.322502        6.59861000E-18
   69.464996        6.60564021E-18
   69.607498        6.61001144E-18
   69.750000        6.61117198E-18
   69.892502        6.60920494E-18
   70.035004        6.60480889E-18
   70.177498        6.59917248E-18
   70.320000        6.59374948E-18
   70.462502        6.58998085E-18
   70.605003        6.58900064E-18
   70.747498        6.59138912E-18
   70.889999        6.59704290E-18
   71.032501        6.60518112E-18
   71.175003        6.61451255E-18
   71.317497        6.62351020E-18
   71.459999        6.63073728E-18
   71.602501        6.63514408E-18
   71.745003        6.63626822E-18
   71.887497        6.63430201E-18
   72.029999        6.63002963E-18
   72.172501        6.62465378E-18
   72.315002        6.61955545E-18
   72.457497        6.61603414E-18
   72.599998        6.61506221E-18
   72.742500        6.61710203E-18
   72.885002        6.62200639E-18
   73.027496        6.62903453E-18
   73.169998        6.63698663E-18
   73.312500        6.64444366E-18
   73.455002        6.65006560E-18
   73.597504        6.65288628E-18
   73.739998        6.65252522E-18
   73.882500        6.64927357E-18
   74.025002        6.64402139E-18
   74.167503        6.63805576E-18
   74.309998        6.63278083E-18
   74.452499        6.62942496E-18
   74.595001        6.62880292E-18
   74.737503        6.63117196E-18
   74.879997        6.63619502E-18
   75.022499        6.64301305E-18
   75.165001        6.65040846E-18
   75.307503        6.65703046E-18
   75.449997        6.66165646E-18
   75.592499        6.66343656E-18
   75.735001        6.66208494E-18
   75.877502        6.65796558E-18
   76.019997        6.65203553E-18
   76.162498        6.64565962E-18
   76.305000        6.64032554E-18
   76.447502        6.63732040E-18
   76.589996        6.63746019E-18
   76.732498        6.64092732E-18
   76.875000        6.64724615E-18
   77.017502        6.65540794E-18
   77.160004        6.66408341E-18
   77.302498        6.67189448E-18
   77.445000        6.67767275E-18
   77.587502        6.68067293E-18
   77.730003        6.68070395E-18
   77.872498        6.67816947E-18
   78.014999        6.67399552E-18
   78.157501        6.66946463E-18
   78.300003        6.66596318E-18
   78.442497        6.66469718E-18
   78.584999        6.66642599E-18
   78.727501        6.67128898E-18
   78.870003        6.67876049E-18
   79.012497        6.68776270E-18
   79.154999        6.69690180E-18
   79.297501        6.70476994E-18
   79.440002        6.71024216E-18
   79.582497        6.71269516E-18
   79.724998        6.71211241E-18
   79.867500        6.70906301E-18
   80.010002        6.70457266E-18
   80.152496        6.69991894E-18
   80.294998        6.69638936E-18
   80.437500        6.69503568E-18
   80.580002        6.69647084E-18
   80.722504        6.70073496E-18
   80.864998        6.70726596E-18
   81.007500        6.71499638E-18
   81.150002        6.72256343E-18
   81.292503        6.72859275E-18
   81.434998        6.73200073E-18
   81.577499        6.73223151E-18
   81.720001        6.72937112E-18
   81.862503        6.72412101E-18
   82.004997        6.71762764E-18
   82.147499        6.71122981E-18
   82.290001        6.70617987E-18
   82.432503        6.70340013E-18
   82.574997        6.70332072E-18
   82.717499        6.70580764E-18
   82.860001        6.71020121E-18
   83.002502        6.71544347E-18
   83.144997        6.72027379E-18
   83.287498        6.72347581E-18
   83.430000        6.72413176E-18
   83.572502        6.72182889E-18
   83.714996        6.71677440E-18
   83.857498        6.70977852E-18
   84.000000        6.70209608E-18
   84.142502        6.69516472E-18
   84.285004        6.69029718E-18
   84.427498        6.68840169E-18
   84.570000        6.68980377E-18
   84.712502        6.69419568E-18
   84.855003        6.70072172E-18
   84.997498        6.70816304E-18
   85.139999        6.71518001E-18
   85.282501        6.72055710E-18
   85.425003        6.72342287E-18
   85.567497        6.72340467E-18
   85.709999        6.72070227E-18
   85.852501        6.71606055E-18
   85.995003        6.71064210E-18
   86.137497        6.70580102E-18
   86.279999        6.70280870E-18
   86.422501        6.70257585E-18
   86.565002        6.70544865E-18
   86.707497        6.71112435E-18
   86.849998        6.71871869E-18
   86.992500        6.72696113E-18
   87.135002        6.73447276E-18
   87.277496        6.74005292E-18
   87.419998        6.74291166E-18
   87.562500        6.74280536E-18
   87.705002        6.74006367E-18
   87.847504        6.73551046E-18
   87.989998        6.73030915E-18
   88.132500        6.72574931E-18
   88.275002        6.72301755E-18
   88.417503        6.72297371E-18
   88.559998        6.72597720E-18
   88.702499        6.73180345E-18
   88.845001        6.73967614E-18
   88.987503        6.74842316E-18
   89.129997        6.75673054E-18
   89.272499        6.76343401E-18
   89.415001        6.76777877E-18
   89.557503        6.76957996E-18
   89.699997        6.76924702E-18
   89.842499        6.76767579E-18
   89.985001        6.76603880E-18
   90.127502        6.76552884E-18
   90.269997        6.76711786E-18
   90.412498        6.77136336E-18
   90.555000        6.77829844E-18
   90.697502        6.78741521E-18
   90.839996        6.79773471E-18
   90.982498        6.80797520E-18
   91.125000        6.81677930E-18
   91.267502        6.82298067E-18
   91.410004        6.82584809E-18
   91.552498        6.82525749E-18
   91.695000        6.82173452E-18
   91.837502        6.81635744E-18
   91.980003        6.81052829E-18