  -30.000000        4.89657587E-18
  -29.857500        4.90192318E-18
  -29.715000        4.91169963E-18
  -29.572500        4.92431744E-18
  -29.430000        4.93782985E-18
  -29.287500        4.95030332E-18
  -29.145000        4.96019599E-18
  -29.002501        4.96664179E-18
  -28.860001        4.96960434E-18
  -28.717501        4.96985953E-18
  -28.575001        4.96881480E-18
  -28.432501        4.96820558E-18
  -28.290001        4.96972180E-18
  -28.147499        4.97465014E-18
  -28.004999        4.98359817E-18
  -27.862499        4.99635371E-18
  -27.719999        5.01191587E-18
  -27.577499        5.02868737E-18
  -27.434999        5.04478679E-18
  -27.292500        5.05842410E-18
  -27.150000        5.06826010E-18
  -27.007500        5.07367152E-18
  -26.865000        5.07488375E-18
  -26.722500        5.07292127E-18
  -26.580000        5.06940740E-18
  -26.437500        5.06624302E-18
  -26.295000        5.06522807E-18
  -26.152500        5.06770879E-18
  -26.010000        5.07431424E-18
  -25.867500        5.08483846E-18
  -25.725000        5.09828966E-18
  -25.582500        5.11309371E-18
  -25.440001        5.12741593E-18
  -25.297501        5.13953205E-18
  -25.155001        5.14817609E-18
  -25.012501        5.15279507E-18
  -24.870001        5.15365823E-18
  -24.727501        5.15179790E-18
  -24.584999        5.14879896E-18
  -24.442499        5.14646920E-18
  -24.299999        5.14647375E-18
  -24.157499        5.14999217E-18
  -24.014999        5.15748022E-18
  -23.872499        5.16857726E-18
  -23.730000        5.18217900E-18
  -23.587500        5.19666376E-18
  -23.445000        5.21022001E-18
  -23.302500        5.22121407E-18
  -23.160000        5.22851890E-18
  -23.017500        5.23174532E-18
  -22.875000        5.23131891E-18
  -22.732500        5.22839855E-18
  -22.590000        5.22464067E-18
  -22.447500        5.22186672E-18
  -22.305000        5.22169466E-18
  -22.162500        5.22520977E-18
  -22.020000        5.23274249E-18
  -21.877501        5.24380479E-18
  -21.735001        5.25718609E-18
  -21.592501        5.27120266E-18
  -21.450001        5.28403844E-18
  -21.307501        5.29411474E-18
  -21.165001        5.30040793E-18
  -21.022499        5.30265579E-18
  -20.879999        5.30140634E-18
  -20.737499        5.29790529E-18
  -20.594999        5.29384053E-18
  -20.452499        5.29099875E-18
  -20.309999        5.29090238E-18
  -20.167500        5.29449731E-18
  -20.025000        5.30196344E-18
  -19.882500        5.31267460E-18
  -19.740000        5.32532716E-18
  -19.597500        5.33820926E-18
  -19.455000        5.34955611E-18
  -19.312500        5.35791518E-18
  -19.170000        5.36245433E-18
  -19.027500        5.36313800E-18
  -18.885000        5.36074331E-18
  -18.742500        5.35670832E-18
  -18.600000        5.35283919E-18
  -18.457500        5.35094742E-18
  -18.315001        5.35247399E-18
  -18.172501        5.35819477E-18
  -18.030001        5.36805104E-18
  -17.887501        5.38114986E-18
  -17.745001        5.39592702E-18
  -17.602501        5.41044901E-18
  -17.459999        5.42278930E-18
  -17.317499        5.43140811E-18
  -17.174999        5.43545716E-18
  -17.032499        5.43495051E-18
  -16.889999        5.43076787E-18
  -16.747499        5.42447509E-18
  -16.605000        5.41802019E-18
  -16.462500        5.41334414E-18
  -16.320000        5.41199914E-18
  -16.177500        5.41484630E-18
  -16.035000        5.42189222E-18
  -15.892500        5.43229857E-18
  -15.750000        5.44456069E-18
  -15.607500        5.45681579E-18
  -15.465000        5.46721965E-18
  -15.322500        5.47431810E-18
  -15.180000        5.47733690E-18
  -15.037500        5.47633229E-18
  -14.895000        5.47217943E-18
  -14.752500        5.46638999E-18
  -14.610000        5.46080032E-18
  -14.467500        5.45719464E-18
  -14.325000        5.45693697E-18
  -14.182500        5.46068741E-18
  -14.040000        5.46826190E-18
  -13.897500        5.47866452E-18
  -13.755000        5.49028807E-18
  -13.612500        5.50123291E-18
  -13.470000        5.50969372E-18
  -13.327500        5.51432014E-18
  -13.185000        5.51448889E-18
  -13.042500        5.51043240E-18
  -12.900000        5.50319663E-18
  -12.757500        5.49443969E-18
  -12.615000        5.48611080E-18
  -12.472500        5.48007363E-18
  -12.330000        5.47774470E-18
  -12.187500        5.47982547E-18
  -12.045000        5.48617119E-18
  -11.902500        5.49583679E-18
  -11.760000        5.50727753E-18
  -11.617500        5.51867525E-18
  -11.475000        5.52831563E-18
  -11.332500        5.53493679E-18
  -11.190000        5.53798909E-18
  -11.047500        5.53773556E-18
  -10.905000        5.53518950E-18
  -10.762500        5.53189484E-18
  -10.620000        5.52959817E-18
  -10.477500        5.52987858E-18
  -10.335000        5.53380976E-18
  -10.192500        5.54172216E-18
  -10.050000        5.55311285E-18
  -9.9075003        5.56671666E-18
  -9.7650003        5.58073944E-18
  -9.6225004        5.59319223E-18
  -9.4799995        5.60227674E-18
  -9.3374996        5.60673566E-18
  -9.1949997        5.60610038E-18
  -9.0524998        5.60078616E-18
  -8.9099998        5.59201267E-18
  -8.7674999        5.58156538E-18
  -8.6250000        5.57145020E-18
  -8.4825001        5.56350596E-18
  -8.3400002        5.55906276E-18
  -8.1975002        5.55869921E-18
  -8.0550003        5.56216096E-18
  -7.9124999        5.56843885E-18
  -7.7700000        5.57599969E-18
  -7.6275001        5.58311179E-18
  -7.4850001        5.58820723E-18
  -7.3425002        5.59020818E-18
  -7.1999998        5.58874861E-18
  -7.0574999        5.58425372E-18
  -6.9150000        5.57785382E-18
  -6.7725000        5.57115324E-18
  -6.6300001        5.56589651E-18
  -6.4875002        5.56360894E-18
  -6.3449998        5.56527488E-18
  -6.2024999        5.57113008E-18
  -6.0599999        5.58060998E-18
  -5.9175000        5.59246100E-18
  -5.7750001        5.60499196E-18
  -5.6325002        5.61641036E-18
  -5.4899998        5.62518013E-18
  -5.3474998        5.63032189E-18
  -5.2049999        5.63159823E-18
  -5.0625000        5.62955054E-18
  -4.9200001        5.62538362E-18
  -4.7775002        5.62070963E-18
  -4.6350002        5.61721810E-18
  -4.4924998        5.61632309E-18
  -4.3499999        5.61887246E-18
  -4.2075000        5.62496217E-18
  -4.0650001        5.63391723E-18
  -3.9224999        5.64442656E-18
  -3.7800000        5.65481760E-18
  -3.6375000        5.66340746E-18
  -3.4949999        5.66885568E-18
  -3.3525000        5.67045255E-18
  -3.2100000        5.66827335E-18
  -3.0675001        5.66317254E-18
  -2.9250000        5.65662003E-18
  -2.7825000        5.65040997E-18
  -2.6400001        5.64630839E-18
  -2.4974999        5.64569628E-18
  -2.3550000        5.64929369E-18
  -2.2125001        5.65700384E-18
  -2.0699999        5.66792179E-18
  -1.9275000        5.68050197E-18
  -1.7850000        5.69285674E-18
  -1.6425000        5.70312536E-18
  -1.5000000        5.70984496E-18
  -1.3575000        5.71224172E-18
  -1.2150000        5.71038470E-18
  -1.0725000        5.70516684E-18
 -0.93000001        5.69812505E-18
 -0.78750002        5.69112214E-18
 -0.64499998        5.68597584E-18
 -0.50250000        5.68409442E-18
 -0.36000001        5.68620042E-18
 -0.21750000        5.69219500E-18
 -7.50000030E-02    5.70118438E-18
  6.75000027E-02    5.71165773E-18
  0.20999999        5.72179607E-18
  0.35249999        5.72983130E-18
  0.49500000        5.73440561E-18
  0.63749999        5.73484195E-18
  0.77999997        5.73129003E-18
  0.92250001        5.72469740E-18
   1.0650001        5.71662329E-18
   1.2075000        5.70892348E-18
   1.3500000        5.70337600E-18
   1.4924999        5.70132045E-18
   1.6350000        5.70339295E-18
   1.7775000        5.70940532E-18
   1.9200000        5.71839305E-18
   2.0625000        5.72882048E-18
   2.2049999        5.73889430E-18
   2.3475001        5.74692664E-18
   2.4900000        5.75167094E-18
   2.6324999        5.75256595E-18
   2.7750001        5.74984576E-18
   2.9175000        5.74449101E-18
   3.0599999        5.73803362E-18
   3.2025001        5.73224667E-18
   3.3450000        5.72878698E-18
   3.4875000        5.72885647E-18
   3.6300001        5.73295556E-18
   3.7725000        5.74077821E-18
   3.9150000        5.75127802E-18
   4.0574999        5.76288585E-18
   4.1999998        5.77383524E-18
   4.3425002        5.78252725E-18
   4.4850001        5.78785430E-18
   4.6275001        5.78942387E-18
   4.7700000        5.78762641E-18
   4.9124999        5.78355130E-18
   5.0549998        5.77875903E-18
   5.1975002        5.77496227E-18
   5.3400002        5.77367435E-18
   5.4825001        5.77589657E-18
   5.6250000        5.78190563E-18
   5.7674999        5.79118204E-18
   5.9099998        5.80249788E-18
   6.0524998        5.81415285E-18
   6.1950002        5.82431352E-18
   6.3375001        5.83138220E-18
   6.4800000        5.83432613E-18
   6.6224999        5.83289428E-18
   6.7649999        5.82767519E-18
   6.9074998        5.81998406E-18
   7.0500002        5.81160803E-18
   7.1925001        5.80445540E-18
   7.3350000        5.80019046E-18
   7.4775000        5.79991914E-18
   7.6199999        5.80398184E-18
   7.7624998        5.81190251E-18
   7.9050002        5.82249166E-18
   8.0474997        5.83408335E-18
   8.1899996        5.84486689E-18
   8.3325005        5.85324499E-18
   8.4750004        5.85814728E-18
   8.6175003        5.85924081E-18
   8.7600002        5.85698716E-18
   8.9025002        5.85253403E-18
   9.0450001        5.84746548E-18
   9.1875000        5.84345986E-18
   9.3299999        5.84193495E-18
   9.4724998        5.84374772E-18
   9.6149998        5.84901810E-18
   9.7574997        5.85710627E-18
   9.8999996        5.86674706E-18
   10.042500        5.87631051E-18
   10.185000        5.88412985E-18
   10.327500        5.88884188E-18
   10.470000        5.88966286E-18
   10.612500        5.88655556E-18
   10.755000        5.88024665E-18
   10.897500        5.87209437E-18
   11.040000        5.86382711E-18
   11.182500        5.85720057E-18
   11.325000        5.85364618E-18
   11.467500        5.85398160E-18
   11.610000        5.85824737E-18
   11.752500        5.86570688E-18
   11.895000        5.87500811E-18
   12.037500        5.88447065E-18
   12.180000        5.89244012E-18
   12.322500        5.89763026E-18
   12.465000        5.89938430E-18
   12.607500        5.89780521E-18
   12.750000        5.89373093E-18
   12.892500        5.88856809E-18
   13.035000        5.88400205E-18
   13.177500        5.88165947E-18
   13.320000        5.88277120E-18
   13.462500        5.88790841E-18
   13.605000        5.89684651E-18
   13.747500        5.90858586E-18
   13.890000        5.92153578E-18
   14.032500        5.93382314E-18
   14.175000        5.94366700E-18
   14.317500        5.94973892E-18
   14.460000        5.95143257E-18
   14.602500        5.94898949E-18
   14.745000        5.94344532E-18
   14.887500        5.93642297E-18
   15.030000        5.92981173E-18
   15.172500        5.92539541E-18
   15.315000        5.92450826E-18
   15.457500        5.92778100E-18
   15.600000        5.93502172E-18
   15.742500        5.94525726E-18
   15.885000        5.95692133E-18
   16.027500        5.96816354E-18
   16.170000        5.97721579E-18
   16.312500        5.98274591E-18
   16.455000        5.98412895E-18
   16.597500        5.98157503E-18
   16.740000        5.97608504E-18
   16.882500        5.96924384E-18
   17.025000        5.96289026E-18
   17.167500        5.95874154E-18
   17.309999        5.95804340E-18
   17.452499        5.96132482E-18
   17.594999        5.96830127E-18
   17.737499        5.97793999E-18
   17.879999        5.98867307E-18
   18.022499        5.99871049E-18
   18.165001        6.00639459E-18
   18.307501        6.01052553E-18
   18.450001        6.01060204E-18
   18.592501        6.00692481E-18
   18.735001        6.00054063E-18
   18.877501        5.99303810E-18
   19.020000        5.98622668E-18
   19.162500        5.98177190E-18
   19.305000        5.98085125E-18
   19.447500        5.98391926E-18
   19.590000        5.99062067E-18
   19.732500        5.99987434E-18
   19.875000        6.01010449E-18
   20.017500        6.01957075E-18
   20.160000        6.02672090E-18
   20.302500        6.03050277E-18
   20.445000        6.03056439E-18
   20.587500        6.02732019E-18
   20.730000        6.02185997E-18
   20.872499        6.01573139E-18
   21.014999        6.01062810E-18
   21.157499        6.00804523E-18
   21.299999        6.00897498E-18
   21.442499        6.01369115E-18
   21.584999        6.02168709E-18
   21.727501        6.03177125E-18
   21.870001        6.04230994E-18
   22.012501        6.05156651E-18
   22.155001        6.05806194E-18
   22.297501        6.06088056E-18
   22.440001        6.05985362E-18
   22.582500        6.05558826E-18
   22.725000        6.04933808E-18
   22.867500        6.04274339E-18
   23.010000        6.03750568E-18
   23.152500        6.03504647E-18
   23.295000        6.03623058E-18
   23.437500        6.04119201E-18
   23.580000        6.04930210E-18
   23.722500        6.05928700E-18
   23.865000        6.06947207E-18
   24.007500        6.07811983E-18
   24.150000        6.08377857E-18
   24.292500        6.08558596E-18
   24.434999        6.08345018E-18
   24.577499        6.07807310E-18
   24.719999        6.07080631E-18
   24.862499        6.06337244E-18
   25.004999        6.05751435E-18
   25.147499        6.05464610E-18
   25.290001        6.05557668E-18
   25.432501        6.06036357E-18
   25.575001        6.06831526E-18
   25.717501        6.07814134E-18
   25.860001        6.08821185E-18
   26.002501        6.09687905E-18
   26.145000        6.10280662E-18
   26.287500        6.10523812E-18
   26.430000        6.10414790E-18
   26.572500        6.10025477E-18
   26.715000        6.09487727E-18
   26.857500        6.08966355E-18
   27.000000        6.08624481E-18
   27.142500        6.08589119E-18
   27.285000        6.08923962E-18
   27.427500        6.09616395E-18
   27.570000        6.10579978E-18
   27.712500        6.11672931E-18
   27.855000        6.12727132E-18
   27.997499        6.13582230E-18
   28.139999        6.14117374E-18
   28.282499        6.14274787E-18
   28.424999        6.14070597E-18
   28.567499        6.13591536E-18
   28.709999        6.12978057E-18
   28.852501        6.12396508E-18
   28.995001        6.12006078E-18
   29.137501        6.11926297E-18
   29.280001        6.12212046E-18
   29.422501        6.12841448E-18
   29.565001        6.13719624E-18
   29.707500        6.14698551E-18
   29.850000        6.15607540E-18
   29.992500        6.16289261E-18
   30.135000        6.16632417E-18
   30.277500        6.16594160E-18
   30.420000        6.16208363E-18
   30.562500        6.15577968E-18
   30.705000        6.14853441E-18
   30.847500        6.14203153E-18
   30.990000        6.13779554E-18
   31.132500        6.13689598E-18
   31.275000        6.13973031E-18
   31.417500        6.14594037E-18
   31.559999        6.15447563E-18
   31.702499        6.16379424E-18
   31.844999        6.17217647E-18
   31.987499        6.17807427E-18
   32.130001        6.18044414E-18
   32.272499        6.17896969E-18
   32.415001        6.17413730E-18
   32.557499        6.16714349E-18
   32.700001        6.15964924E-18
   32.842499        6.15344166E-18
   32.985001        6.15007793E-18
   33.127499        6.15057755E-18
   33.270000        6.15522547E-18
   33.412498        6.16352085E-18
   33.555000        6.17427296E-18
   33.697498        6.18582537E-18
   33.840000        6.19636778E-18
   33.982498        6.20427687E-18
   34.125000        6.20842808E-18
   34.267502        6.20841732E-18
   34.410000        6.20464083E-18
   34.552502        6.19822149E-18
   34.695000        6.19077852E-18
   34.837502        6.18410235E-18
   34.980000        6.17978322E-18
   35.122501        6.17889649E-18
   35.264999        6.18179451E-18
   35.407501        6.18805710E-18
   35.549999        6.19660022E-18
   35.692501        6.20591345E-18
   35.834999        6.21437426E-18
   35.977501        6.22057191E-18
   36.119999        6.22358492E-18
   36.262501        6.22315561E-18
   36.404999        6.21974060E-18
   36.547501        6.21442100E-18
   36.689999        6.20869153E-18
   36.832500        6.20416065E-18
   36.974998        6.20222339E-18
   37.117500        6.20376650E-18
   37.259998        6.20897815E-18
   37.402500        6.21730372E-18
   37.544998        6.22755828E-18
   37.687500        6.23818094E-18
   37.830002        6.24756199E-18
   37.972500        6.25437713E-18
   38.115002        6.25785667E-18
   38.257500        6.25792863E-18
   38.400002        6.25521879E-18
   38.542500        6.25091124E-18
   38.685001        6.24650403E-18
   38.827499        6.24350302E-18
   38.970001        6.24311920E-18
   39.112499        6.24601971E-18
   39.255001        6.25217807E-18
   39.397499        6.26086305E-18
   39.540001        6.27076896E-18
   39.682499        6.28027368E-18
   39.825001        6.28776917E-18
   39.967499        6.29200310E-18
   40.110001        6.29234720E-18
   40.252499        6.28893632E-18
   40.395000        6.28264189E-18
   40.537498        6.27489328E-18
   40.680000        6.26738207E-18
   40.822498        6.26171753E-18
   40.965000        6.25911109E-18
   41.107498        6.26013844E-18
   41.250000        6.26463748E-18
   41.392502        6.27174255E-18
   41.535000        6.28005240E-18
   41.677502        6.28790193E-18
   41.820000        6.29369013E-18
   41.962502        6.29619980E-18
   42.105000        6.29485646E-18
   42.247501        6.28985822E-18
   42.389999        6.28215551E-18
   42.532501        6.27326621E-18
   42.674999        6.26497704E-18
   42.817501        6.25897956E-18
   42.959999        6.25653276E-18
   43.102501        6.25822228E-18
   43.244999        6.26386158E-18
   43.387501        6.27255484E-18
   43.529999        6.28289336E-18
   43.672501        6.29324511E-18
   43.814999        6.30207319E-18
   43.957500        6.30822576E-18
   44.099998        6.31114860E-18
   44.242500        6.31097738E-18
   44.384998        6.30850494E-18
   44.527500        6.30501341E-18
   44.669998        6.30200743E-18
   44.812500        6.30089198E-18
   44.955002        6.30267042E-18
   45.097500        6.30771332E-18
   45.240002        6.31567039E-18
   45.382500        6.32553989E-18
   45.525002        6.33587386E-18
   45.667500        6.34508824E-18
   45.810001        6.35178633E-18
   45.952499        6.35504294E-18
   46.095001        6.35457807E-18
   46.237499        6.35079992E-18
   46.380001        6.34471932E-18
   46.522499        6.33774908E-18
   46.665001        6.33143521E-18
   46.807499        6.32716489E-18
   46.950001        6.32590427E-18
   47.092499        6.32800737E-18
   47.235001        6.33314251E-18
   47.377499        6.34035635E-18
   47.520000        6.34826958E-18
   47.662498        6.35536596E-18
   47.805000        6.36032284E-18
   47.947498        6.36229690E-18
   48.090000        6.36111197E-18
   48.232498        6.35729370E-18
   48.375000        6.35195632E-18
   48.517502        6.34656558E-18
   48.660000        6.34263482E-18
   48.802502        6.34141928E-18
   48.945000        6.34366714E-18
   49.087502        6.34946816E-18
   49.230000        6.35822552E-18
   49.372501        6.36875264E-18
   49.514999        6.37947910E-18
   49.657501        6.38873856E-18
   49.799999        6.39508345E-18
   49.942501        6.39757285E-18
   50.084999        6.39597060E-18
   50.227501        6.39080444E-18
   50.369999        6.38326841E-18
   50.512501        6.37498503E-18
   50.654999        6.36767647E-18
   50.797501        6.36282216E-18
   50.939999        6.36137501E-18
   51.082500        6.36359144E-18
   51.224998        6.36901237E-18
   51.367500        6.37658107E-18
   51.509998        6.38486860E-18
   51.652500        6.39236244E-18
   51.794998        6.39775896E-18
   51.937500        6.40021817E-18
   52.080002        6.39952913E-18
   52.222500        6.39616044E-18
   52.365002        6.39117047E-18
   52.507500        6.38600597E-18
   52.650002        6.38219804E-18
   52.792500        6.38104454E-18
   52.935001        6.38332425E-18
   53.077499        6.38913106E-18
   53.220001        6.39785078E-18
   53.362499        6.40829683E-18
   53.505001        6.41896457E-18
   53.647499        6.42833818E-18
   53.790001        6.43519261E-18
   53.932499        6.43881980E-18
   54.075001        6.43914240E-18
   54.217499        6.43670883E-18
   54.360001        6.43256631E-18
   54.502499        6.42804618E-18
   54.645000        6.42449716E-18
   54.787498        6.42300907E-18
   54.930000        6.42418077E-18
   55.072498        6.42798580E-18
   55.215000        6.43376324E-18
   55.357498        6.44035504E-18
   55.500000        6.44635500E-18
   55.642502        6.45042266E-18
   55.785000        6.45159395E-18
   55.927502        6.44949787E-18
   56.070000        6.44444876E-18
   56.212502        6.43738092E-18
   56.355000        6.42966125E-18
   56.497501        6.42281220E-18
   56.639999        6.41822010E-18
   56.782501        6.41687056E-18
   56.924999        6.41916557E-18
   57.067501        6.42484830E-18
   57.209999        6.43303904E-18
   57.352501        6.44239735E-18
   57.494999        6.45136730E-18
   57.637501        6.45848353E-18
   57.779999        6.46266659E-18
   57.922501        6.46345489E-18
   58.064999        6.46111107E-18
   58.207500        6.45656985E-18
   58.349998        6.45124033E-18
   58.492500        6.44670159E-18
   58.634998        6.44436852E-18
   58.777500        6.44519695E-18
   58.919998        6.44949746E-18
   59.062500        6.45688542E-18
   59.205002        6.46636326E-18
   59.347500        6.47652103E-18
   59.490002        6.48580490E-18
   59.632500        6.49280326E-18
   59.775002        6.49651771E-18
   59.917500        6.49655576E-18
   60.060001        6.49321974E-18
   60.202499        6.48746629E-18
   60.345001        6.48072683E-18
   60.487499        6.47462720E-18
   60.630001        6.47064971E-18
   60.772499        6.46982459E-18
   60.915001        6.47251334E-18
   61.057499        6.47834042E-18
   61.200001        6.48629004E-18
   61.342499        6.49493408E-18
   61.485001        6.50273687E-18
   61.627499        6.50837245E-18
   61.770000        6.51098469E-18
   61.912498        6.51034569E-18
   62.055000        6.50689387E-18
   62.197498        6.50165078E-18
   62.340000        6.49602719E-18
   62.482498        6.49155422E-18
   62.625000        6.48958180E-18
   62.767502        6.49099463E-18
   62.910000        6.49601396E-18
   63.052502        6.50412198E-18
   63.195000        6.51415320E-18
   63.337502        6.52451736E-18
   63.480000        6.53353611E-18
   63.622501        6.53978588E-18
   63.764999        6.54239439E-18
   63.907501        6.54120201E-18
   64.050003        6.53677618E-18
   64.192497        6.53027578E-18
   64.334999        6.52320587E-18
   64.477501        6.51711823E-18
   64.620003        6.51331527E-18
   64.762497        6.51260555E-18
   64.904999        6.51515037E-18
   65.047501        6.52043068E-18
   65.190002        6.52734094E-18
   65.332497        6.53440258E-18
   65.474998        6.54007125E-18
   65.617500        6.54306317E-18
   65.760002        6.54264751E-18
   65.902496        6.53882262E-18
   66.044998        6.53233050E-18
   66.187500        6.52451033E-18
   66.330002        6.51701566E-18
   66.472504        6.51147148E-18
   66.614998        6.50914504E-18
   66.757500        6.51070138E-18
   66.900002        6.51609129E-18
   67.042503        6.52456947E-18
   67.184998        6.53484554E-18
   67.327499        6.54532426E-18
   67.470001        6.55439637E-18
   67.612503        6.56073712E-18
   67.754997        6.56355532E-18
   67.897499        6.56275420E-18
   68.040001        6.55895744E-18
   68.182503        6.55339134E-18
   68.324997        6.54762920E-18
   68.467499        6.54326086E-18
   68.610001        6.54155067E-18
   68.752502        6.54317359E-18
   68.894997        6.54808374E-18
   69.037498        6.55554449E-18
   69.180000        6.56430558E-18
   69.322502        6.57287434E-18
   69.464996        6.57982224E-18
   69.607498        6.58405906E-18
   69.750000        6.58503390E-18
   69.892502        6.58283484E-18
   70.035004        6.57817119E-18
   70.177498        6.57224486E-18
   70.320000        6.56652904E-18
   70.462502        6.56248330E-18
   70.605003        6.56125824E-18
   70.747498        6.56344820E-18
   70.889999        6.56895681E-18
   71.032501        6.57700487E-18
   71.175003        6.58629328E-18
   71.317497        6.59528390E-18
   71.459999        6.60252339E-18
   71.602501        6.60694550E-18
   71.745003        6.60807129E-18
   71.887497        6.60608068E-18
   72.029999        6.60175246E-18
   72.172501        6.59628769E-18
   72.315002        6.59107149E-18
   72.457497        6.58741121E-18
   72.599998        6.58629038E-18
   72.742500        6.58817966E-18
   72.885002        6.59294092E-18
   73.027496        6.59983712E-18
   73.169998        6.60766969E-18
   73.312500        6.61501754E-18
   73.455002        6.62054021E-18
   73.597504        6.62326701E-18
   73.739998        6.62281702E-18
   73.882500        6.61948225E-18
   74.025002        6.61415355E-18
   74.167503        6.60812175E-18
   74.309998        6.60279512E-18
   74.452499        6.59940575E-18
   74.595001        6.59877088E-18
   74.737503        6.60114572E-18
   74.879997        6.60619028E-18
   75.022499        6.61304099E-18
   75.165001        6.62047445E-18
   75.307503        6.62713491E-18
   75.449997        6.63179318E-18
   75.592499        6.63359684E-18
   75.735001        6.63226095E-18
   75.877502        6.62815151E-18
   76.019997        6.62223221E-18
   76.162498        6.61587491E-18
   76.305000        6.61057434E-18
   76.447502        6.60762627E-18
   76.589996        6.60785333E-18
   76.732498        6.61144205E-18
   76.875000        6.61792218E-18
   77.017502        6.62628333E-18
   77.160004        6.63519785E-18
   77.302498        6.64328478E-18
   77.445000        6.64937200E-18
   77.587502        6.65270720E-18
   77.730003        6.65309225E-18
   77.872498        6.65091925E-18
   78.014999        6.64710139E-18
   78.157501        6.64290759E-18
   78.300003        6.63971012E-18
   78.442497        6.63869931E-18
   78.584999        6.64062291E-18
   78.727501        6.64560916E-18
   78.870003        6.65312658E-18
   79.012497        6.66209611E-18
   79.154999        6.67112520E-18
   79.297501        6.67881260E-18
   79.440002        6.68403914E-18
   79.582497        6.68618940E-18
   79.724998        6.68525262E-18
   79.867500        6.68180369E-18
   80.010002        6.67687038E-18
   80.152496        6.67173070E-18
   80.294998        6.66767255E-18
   80.437500        6.66575018E-18
   80.580002        6.66657777E-18
   80.722504        6.67020207E-18
   80.864998        6.67607257E-18
   81.007500        6.68313545E-18
   81.150002        6.69004447E-18
   81.292503        6.69544431E-18
   81.434998        6.69826830E-18
   81.577499        6.69797341E-18
   81.720001        6.69465559E-18
   81.862503        6.68901836E-18
   82.004997        6.68220611E-18
   82.147499        6.67555186E-18
   82.290001        6.67030091E-18
   82.432503        6.66736856E-18
   82.574997        6.66717831E-18
   82.717499        6.66959533E-18
   82.860001        6.67395953E-18
   83.002502        6.67921461E-18
   83.144997        6.68409953E-18
   83.287498        6.68739667E-18
   83.430000        6.68818084E-18
   83.572502        6.68602727E-18
   83.714996        6.68112581E-18
   83.857498        6.67426394E-18
   84.000000        6.66667580E-18
   84.142502        6.65977876E-18
   84.285004        6.65487276E-18
   84.427498        6.65286312E-18
   84.570000        6.65408404E-18
   84.712502        6.65824807E-18
   84.855003        6.66452885E-18
   84.997498        6.67174186E-18
   85.139999        6.67858141E-18
   85.282501        6.68386295E-18
   85.425003        6.68673575E-18
   85.567497        6.68683377E-18
   85.709999        6.68435389E-18
   85.852501        6.68002608E-18
   85.995003        6.67499144E-18
   86.137497        6.67058009E-18
   86.279999        6.66804064E-18
   86.422501        6.66826895E-18
   86.565002        6.67160455E-18
   86.707497        6.67774678E-18
   86.849998        6.68581882E-18
   86.992500        6.69456460E-18
   87.135002        6.70261721E-18
   87.277496        6.70878508E-18
   87.419998        6.71228033E-18
   87.562500        6.71285688E-18
   87.705002        6.71083318E-18
   87.847504        6.70702112E-18
   87.989998        6.70257006E-18
   88.132500        6.69876254E-18
   88.275002        6.69678476E-18
   88.417503        6.69750275E-18
   88.559998        6.70128834E-18
   88.702499        6.70793060E-18
   88.845001        6.71666480E-18
   88.987503        6.72632131E-18
   89.129997        6.73557787E-18
   89.272499        6.74324625E-18
   89.415001        6.74853442E-18
   89.557503        6.75121076E-18
   89.699997        6.75163552E-18
   89.842499        6.75065737E-18
   89.985001        6.74941164E-18
   90.127502        6.74907456E-18
   90.269997        6.75061891E-18
   90.412498        6.75462495E-18
   90.555000        6.76116257E-18
   90.697502        6.76977186E-18
   90.839996        6.77952432E-18
   90.982498        6.78918042E-18
   91.125000        6.79741335E-18
   91.267502        6.80307126E-18
   91.410004        6.80542087E-18
   91.552498        6.80432403E-18
   91.695000        6.80028614E-18
   91.837502        6.79436767E-18
   91.980003        6.78796239E-18