  -30.000000        9.84048302E-18
  -29.857500        9.85754445E-18
  -29.715000        9.88337730E-18
  -29.572500        9.90645398E-18
  -29.430000        9.91866730E-18
  -29.287500        9.91985927E-18
  -29.145000        9.91752993E-18
  -29.002501        9.92193798E-18
  -28.860001        9.93959332E-18
  -28.717501        9.96905832E-18
  -28.575001        1.00016104E-17
  -28.432501        1.00263447E-17
  -28.290001        1.00366679E-17
  -28.147499        1.00342377E-17
  -28.004999        1.00279991E-17
  -27.862499        1.00288767E-17
  -27.719999        1.00433185E-17
  -27.577499        1.00695409E-17
  -27.434999        1.00987189E-17
  -27.292500        1.01203687E-17
  -27.150000        1.01286620E-17
  -27.007500        1.01258843E-17
  -26.865000        1.01209634E-17
  -26.722500        1.01240050E-17
  -26.580000        1.01401466E-17
  -26.437500        1.01664559E-17
  -26.295000        1.01937264E-17
  -26.152500        1.02120790E-17
  -26.010000        1.02169544E-17
  -25.867500        1.02118755E-17
  -25.725000        1.02063111E-17
  -25.582500        1.02099482E-17
  -25.440001        1.02268310E-17
  -25.297501        1.02529310E-17
  -25.155001        1.02785934E-17
  -25.012501        1.02943794E-17
  -24.870001        1.02967658E-17
  -24.727501        1.02902501E-17
  -24.584999        1.02845979E-17
  -24.442499        1.02889125E-17
  -24.299999        1.03061328E-17
  -24.157499        1.03312848E-17
  -24.014999        1.03545543E-17
  -23.872499        1.03673028E-17
  -23.730000        1.03673723E-17
  -23.587500        1.03604363E-17
  -23.445000        1.03565759E-17
  -23.302500        1.03641380E-17
  -23.160000        1.03845958E-17
  -23.017500        1.04115561E-17
  -22.875000        1.04345186E-17
  -22.732500        1.04451570E-17
  -22.590000        1.04423148E-17
  -22.447500        1.04327046E-17
  -22.305000        1.04268730E-17
  -22.162500        1.04328477E-17
  -22.020000        1.04513187E-17
  -21.877501        1.04752515E-17
  -21.735001        1.04941807E-17
  -21.592501        1.05005930E-17
  -21.450001        1.04945322E-17
  -21.307501        1.04836226E-17
  -21.165001        1.04784742E-17
  -21.022499        1.04862331E-17
  -20.879999        1.05061657E-17
  -20.737499        1.05299596E-17
  -20.594999        1.05466115E-17
  -20.452499        1.05489756E-17
  -20.309999        1.05380593E-17
  -20.167500        1.05224777E-17
  -20.025000        1.05133796E-17
  -19.882500        1.05178893E-17
  -19.740000        1.05349888E-17
  -19.597500        1.05562887E-17
  -19.455000        1.05712251E-17
  -19.312500        1.05735321E-17
  -19.170000        1.05650767E-17
  -19.027500        1.05547543E-17
  -18.885000        1.05530784E-17
  -18.742500        1.05657426E-17
  -18.600000        1.05900104E-17
  -18.457500        1.06161377E-17
  -18.315001        1.06329833E-17
  -18.172501        1.06344714E-17
  -18.030001        1.06230488E-17
  -17.887501        1.06080934E-17
  -17.745001        1.06002559E-17
  -17.602501        1.06051404E-17
  -17.459999        1.06201074E-17
  -17.317499        1.06361026E-17
  -17.174999        1.06433594E-17
  -17.032499        1.06375071E-17
  -16.889999        1.06223987E-17
  -16.747499        1.06079354E-17
  -16.605000        1.06042147E-17
  -16.462500        1.06155124E-17
  -16.320000        1.06377404E-17
  -16.177500        1.06608832E-17
  -16.035000        1.06749453E-17
  -15.892500        1.06758329E-17
  -15.750000        1.06676388E-17
  -15.607500        1.06599891E-17
  -15.465000        1.06620860E-17
  -15.322500        1.06770728E-17
  -15.180000        1.07001073E-17
  -15.037500        1.07213022E-17
  -14.895000        1.07317255E-17
  -14.752500        1.07288055E-17
  -14.610000        1.07178751E-17
  -14.467500        1.07089168E-17
  -14.325000        1.07104984E-17
  -14.182500        1.07245712E-17
  -14.040000        1.07452962E-17
  -13.897500        1.07626000E-17
  -13.755000        1.07683067E-17
  -13.612500        1.07611317E-17
  -13.470000        1.07475048E-17
  -13.327500        1.07377250E-17
  -13.185000        1.07397731E-17
  -13.042500        1.07545283E-17
  -12.900000        1.07752864E-17
  -12.757500        1.07918615E-17
  -12.615000        1.07967940E-17
  -12.472500        1.07898812E-17
  -12.330000        1.07782875E-17
  -12.187500        1.07721564E-17
  -12.045000        1.07783809E-17
  -11.902500        1.07963233E-17
  -11.760000        1.08180972E-17
  -11.617500        1.08332743E-17
  -11.475000        1.08351834E-17
  -11.332500        1.08250041E-17
  -11.190000        1.08111505E-17
  -11.047500        1.08043006E-17
  -10.905000        1.08110422E-17
  -10.762500        1.08299540E-17
  -10.620000        1.08525013E-17
  -10.477500        1.08681937E-17
  -10.335000        1.08709193E-17
  -10.192500        1.08626111E-17
  -10.050000        1.08520463E-17
  -9.9075003        1.08494804E-17
  -9.7650003        1.08603628E-17
  -9.6225004        1.08819191E-17
  -9.4799995        1.09047063E-17
  -9.3374996        1.09182191E-17
  -9.1949997        1.09171959E-17
  -9.0524998        1.09048304E-17
  -8.9099998        1.08909519E-17
  -8.7674999        1.08862354E-17
  -8.6250000        1.08959010E-17
  -8.4825001        1.09166739E-17
  -8.3400002        1.09388110E-17
  -8.1975002        1.09519615E-17
  -8.0550003        1.09513551E-17
  -7.9124999        1.09405803E-17
  -7.7700000        1.09293265E-17
  -7.6275001        1.09274356E-17
  -7.4850001        1.09388837E-17
  -7.3425002        1.09593135E-17
  -7.1999998        1.09786008E-17
  -7.0574999        1.09869380E-17
  -6.9150000        1.09807556E-17
  -6.7725000        1.09649466E-17
  -6.6300001        1.09500391E-17
  -6.4875002        1.09460339E-17
  -6.3449998        1.09565755E-17
  -6.2024999        1.09769531E-17
  -6.0599999        1.09970825E-17
  -5.9175000        1.10076456E-17
  -5.7750001        1.10056802E-17
  -5.6325002        1.09962553E-17
  -5.4899998        1.09892648E-17
  -5.3474998        1.09932949E-17
  -5.2049999        1.10103058E-17
  -5.0625000        1.10343354E-17
  -4.9200001        1.10550149E-17
  -4.7775002        1.10637549E-17
  -4.6350002        1.10588861E-17
  -4.4924998        1.10466257E-17
  -4.3499999        1.10373257E-17
  -4.2075000        1.10392613E-17
  -4.0650001        1.10537138E-17
  -3.9224999        1.10743015E-17
  -3.7800000        1.10909369E-17
  -3.6375000        1.10959935E-17
  -3.4949999        1.10889335E-17
  -3.3525000        1.10766085E-17
  -3.2100000        1.10690539E-17
  -3.0675001        1.10733527E-17
  -2.9250000        1.10893049E-17
  -2.7825000        1.11095245E-17
  -2.6400001        1.11239232E-17
  -2.4974999        1.11258580E-17
  -2.3550000        1.11161998E-17
  -2.2125001        1.11028632E-17
  -2.0699999        1.10960539E-17
  -1.9275000        1.11021171E-17
  -1.7850000        1.11197005E-17
  -1.6425000        1.11405686E-17
  -1.5000000        1.11545761E-17
  -1.3575000        1.11557986E-17
  -1.2150000        1.11461066E-17
  -1.0725000        1.11340132E-17
 -0.93000001        1.11294835E-17
 -0.78750002        1.11378571E-17
 -0.64499998        1.11565555E-17
 -0.50250000        1.11766047E-17
 -0.36000001        1.11880587E-17
 -0.21750000        1.11860561E-17
 -7.50000030E-02    1.11738461E-17
  6.75000027E-02    1.11609172E-17
  0.20999999        1.11573471E-17
  0.35249999        1.11677415E-17
  0.49500000        1.11884392E-17
  0.63749999        1.12096564E-17
  0.77999997        1.12213221E-17
  0.92250001        1.12190895E-17
   1.0650001        1.12069118E-17
   1.2075000        1.11946372E-17
   1.3500000        1.11920540E-17
   1.4924999        1.12029810E-17
   1.6350000        1.12229657E-17
   1.7775000        1.12419718E-17
   1.9200000        1.12504678E-17
   2.0625000        1.12452268E-17
   2.2049999        1.12313649E-17
   2.3475001        1.12193584E-17
   2.4900000        1.12188174E-17
   2.6324999        1.12327512E-17
   2.7750001        1.12557502E-17
   2.9175000        1.12771849E-17
   3.0599999        1.12874924E-17
   3.2025001        1.12838007E-17
   3.3450000        1.12715113E-17
   3.4875000        1.12609341E-17
   3.6300001        1.12610052E-17
   3.7725000        1.12738828E-17
   3.9150000        1.12936690E-17
   4.0574999        1.13100091E-17
   4.1999998        1.13143873E-17
   4.3425002        1.13053281E-17
   4.4850001        1.12893602E-17
   4.6275001        1.12771733E-17
   4.7700000        1.12772800E-17
   4.9124999        1.12909922E-17
   5.0549998        1.13117139E-17
   5.1975002        1.13289590E-17
   5.3400002        1.13346433E-17
   5.4825001        1.13278820E-17
   5.6250000        1.13154031E-17
   5.7674999        1.13073745E-17
   5.9099998        1.13111853E-17
   6.0524998        1.13269679E-17
   6.1950002        1.13475341E-17
   6.3375001        1.13627691E-17
   6.4800000        1.13657859E-17
   6.6224999        1.13571269E-17
   6.7649999        1.13444496E-17
   6.9074998        1.13379140E-17
   7.0500002        1.13440509E-17
   7.1925001        1.13618328E-17
   7.3350000        1.13833171E-17
   7.4775000        1.13984529E-17
   7.6199999        1.14011487E-17
   7.7624998        1.13929108E-17
   7.9050002        1.13818737E-17
   8.0474997        1.13778106E-17
   8.1899996        1.13861668E-17
   8.3325005        1.14047353E-17
   8.4750004        1.14249988E-17
   8.6175003        1.14373047E-17
   8.7600002        1.14367464E-17
   8.9025002        1.14261618E-17
   9.0450001        1.14144166E-17
   9.1875000        1.14110020E-17
   9.3299999        1.14202259E-17
   9.4724998        1.14385141E-17
   9.6149998        1.14564904E-17
   9.7574997        1.14645876E-17
   9.8999996        1.14588271E-17
   10.042500        1.14432563E-17
   10.185000        1.14275730E-17
   10.327500        1.14213501E-17
   10.470000        1.14283497E-17
   10.612500        1.14443507E-17
   10.755000        1.14598165E-17
   10.897500        1.14657813E-17
   11.040000        1.14594045E-17
   11.182500        1.14458106E-17
   11.325000        1.14350813E-17
   11.467500        1.14361847E-17
   11.610000        1.14515074E-17
   11.752500        1.14752847E-17
   11.895000        1.14969114E-17
   12.037500        1.15071692E-17
   12.180000        1.15036430E-17
   12.322500        1.14920815E-17
   12.465000        1.14828857E-17
   12.607500        1.14848271E-17
   12.750000        1.14997718E-17
   12.892500        1.15215787E-17
   13.035000        1.15398222E-17
   13.177500        1.15460988E-17
   13.320000        1.15391166E-17
   13.462500        1.15255029E-17
   13.605000        1.15158323E-17
   13.747500        1.15182659E-17
   13.890000        1.15336183E-17
   14.032500        1.15548256E-17
   14.175000        1.15711235E-17
   14.317500        1.15744505E-17
   14.460000        1.15642323E-17
   14.602500        1.15476879E-17
   14.745000        1.15355027E-17
   14.887500        1.15354737E-17
   15.030000        1.15479377E-17
   15.172500        1.15657163E-17
   15.315000        1.15785731E-17
   15.457500        1.15794756E-17
   15.600000        1.15688794E-17
   15.742500        1.15544583E-17
   15.885000        1.15464669E-17
   16.027500        1.15515400E-17
   16.170000        1.15686668E-17
   16.312500        1.15897781E-17
   16.455000        1.16045623E-17
   16.597500        1.16066063E-17
   16.740000        1.15971657E-17
   16.882500        1.15843096E-17
   17.025000        1.15779825E-17
   17.167500        1.15839787E-17
   17.309999        1.16004810E-17
   17.452499        1.16192158E-17
   17.594999        1.16305283E-17
   17.737499        1.16292561E-17
   17.879999        1.16178609E-17
   18.022499        1.16049254E-17
   18.165001        1.15999342E-17
   18.307501        1.16075211E-17
   18.450001        1.16246686E-17
   18.592501        1.16425622E-17
   18.735001        1.16519606E-17
   18.877501        1.16488330E-17
   19.020000        1.16368315E-17
   19.162500        1.16251004E-17
   19.305000        1.16227495E-17
   19.447500        1.16333333E-17
   19.590000        1.16526893E-17
   19.732500        1.16714407E-17
   19.875000        1.16806571E-17
   20.017500        1.16772351E-17
   20.160000        1.16657489E-17
   20.302500        1.16556300E-17
   20.445000        1.16553934E-17
   20.587500        1.16674165E-17
   20.730000        1.16864284E-17
   20.872499        1.17026709E-17
   21.014999        1.17078135E-17
   21.157499        1.17000587E-17
   21.299999        1.16853340E-17
   21.442499        1.16738263E-17
   21.584999        1.16739156E-17
   21.727501        1.16871720E-17
   21.870001        1.17074197E-17
   22.012501        1.17244489E-17
   22.155001        1.17301482E-17
   22.297501        1.17233645E-17
   22.440001        1.17105564E-17
   22.582500        1.17018404E-17
   22.725000        1.17048100E-17
   22.867500        1.17198547E-17
   23.010000        1.17398204E-17
   23.152500        1.17542258E-17
   23.295000        1.17555385E-17
   23.437500        1.17437172E-17
   23.580000        1.17263043E-17
   23.722500        1.17139975E-17
   23.865000        1.17143317E-17
   24.007500        1.17272737E-17
   24.150000        1.17453435E-17
   24.292500        1.17581871E-17
   24.434999        1.17588489E-17
   24.577499        1.17479615E-17
   24.719999        1.17333601E-17
   24.862499        1.17253439E-17
   25.004999        1.17304592E-17
   25.147499        1.17475281E-17
   25.290001        1.17683275E-17
   25.432501        1.17824889E-17
   25.575001        1.17836858E-17
   25.717501        1.17733965E-17
   25.860001        1.17599871E-17
   26.002501        1.17536815E-17
   26.145000        1.17604503E-17
   26.287500        1.17784853E-17
   26.430000        1.17993418E-17
   26.572500        1.18130524E-17
   26.715000        1.18141012E-17
   26.857500        1.18046697E-17
   27.000000        1.17932157E-17
   27.142500        1.17892833E-17
   27.285000        1.17976742E-17
   27.427500        1.18155289E-17
   27.570000        1.18340479E-17
   27.712500        1.18438078E-17
   27.855000        1.18404494E-17
   27.997499        1.18273047E-17
   28.139999        1.18133857E-17
   28.282499        1.18079693E-17
   28.424999        1.18150558E-17
   28.567499        1.18310411E-17
   28.709999        1.18469949E-17
   28.852501        1.18541384E-17
   28.995001        1.18492026E-17
   29.137501        1.18364070E-17
   29.280001        1.18248843E-17
   29.422501        1.18231208E-17
   29.565001        1.18337889E-17
   29.707500        1.18521160E-17
   29.850000        1.18687737E-17
   29.992500        1.18755301E-17
   30.135000        1.18702444E-17
   30.277500        1.18581593E-17
   30.420000        1.18487063E-17
   30.562500        1.18497527E-17
   30.705000        1.18627841E-17
   30.847500        1.18819358E-17
   30.990000        1.18974885E-17
   31.132500        1.19017030E-17
   31.275000        1.18934899E-17
   31.417500        1.18790655E-17
   31.559999        1.18681955E-17
   31.702499        1.18682981E-17
   31.844999        1.18799638E-17
   31.987499        1.18966100E-17
   32.130001        1.19085007E-17
   32.272499        1.19086852E-17
   32.415001        1.18972858E-17
   32.557499        1.18815040E-17
   32.700001        1.18713281E-17
   32.842499        1.18735027E-17
   32.985001        1.18874101E-17
   33.127499        1.19053450E-17
   33.270000        1.19170571E-17
   33.412498        1.19158386E-17
   33.555000        1.19025194E-17
   33.697498        1.18849633E-17
   33.840000        1.18733604E-17
   33.982498        1.18741554E-17
   34.125000        1.18862504E-17
   34.267502        1.19017675E-17
   34.410000        1.19109045E-17
   34.552502        1.19079713E-17
   34.695000        1.18949449E-17
   34.837502        1.18804155E-17
   34.980000        1.18745185E-17
   35.122501        1.18829069E-17
   35.264999        1.19033598E-17
   35.407501        1.19270751E-17
   35.549999        1.19438701E-17
   35.692501        1.19481731E-17
   35.834999        1.19422332E-17
   35.977501        1.19346330E-17
   36.119999        1.19350243E-17
   36.262501        1.19482525E-17
   36.404999        1.19714062E-17
   36.547501        1.19955358E-17
   36.689999        1.20110016E-17
   36.832500        1.20132177E-17
   36.974998        1.20053272E-17
   37.117500        1.19962340E-17
   37.259998        1.19951735E-17
   37.402500        1.20061089E-17
   37.544998        1.20253152E-17
   37.687500        1.20436108E-17
   37.830002        1.20518520E-17
   37.972500        1.20464025E-17
   38.115002        1.20312791E-17
   38.257500        1.20156992E-17
   38.400002        1.20085490E-17
   38.542500        1.20131010E-17
   38.685001        1.20251605E-17
   38.827499        1.20357484E-17
   38.970001        1.20366475E-17
   39.112499        1.20254616E-17
   39.255001        1.20071213E-17
   39.397499        1.19909359E-17
   39.540001        1.19849901E-17
   39.682499        1.19912916E-17
   39.825001        1.20046009E-17
   39.967499        1.20156487E-17
   40.110001        1.20167811E-17
   40.252499        1.20066134E-17
   40.395000        1.19908714E-17
   40.537498        1.19789087E-17
   40.680000        1.19780286E-17
   40.822498        1.19890309E-17
   40.965000        1.20057102E-17
   41.107498        1.20185803E-17
   41.250000        1.20206027E-17
   41.392502        1.20114235E-17
   41.535000        1.19975633E-17
   41.677502        1.19884477E-17
   41.820000        1.19906728E-17
   41.962502        1.20039971E-17
   42.105000        1.20214862E-17
   42.247501        1.20337458E-17
   42.389999        1.20346739E-17
   42.532501        1.20252473E-17
   42.674999        1.20130332E-17
   42.817501        1.20076855E-17
   42.959999        1.20151309E-17
   43.102501        1.20339509E-17
   43.244999        1.20561525E-17
   43.387501        1.20718805E-17
   43.529999        1.20752570E-17
   43.672501        1.20678215E-17
   43.814999        1.20575165E-17
   43.957500        1.20538058E-17
   44.099998        1.20618923E-17
   44.242500        1.20795013E-17
   44.384998        1.20982055E-17
   44.527500        1.21084874E-17
   44.669998        1.21055145E-17
   44.812500        1.20921373E-17
   44.955002        1.20772878E-17
   45.097500        1.20707257E-17
   45.240002        1.20772621E-17
   45.382500        1.20939257E-17
   45.525002        1.21117704E-17
   45.667500        1.21212383E-17
   45.810001        1.21178701E-17
   45.952499        1.21049305E-17
   46.095001        1.20913970E-17
   46.237499        1.20865174E-17
   46.380001        1.20942193E-17
   46.522499        1.21107274E-17
   46.665001        1.21268185E-17
   46.807499        1.21333632E-17
   46.950001        1.21268102E-17
   47.092499        1.21113329E-17
   47.235001        1.20963551E-17
   47.377499        1.20909453E-17
   47.520000        1.20984412E-17
   47.662498        1.21145324E-17
   47.805000        1.21299229E-17
   47.947498        1.21359547E-17
   48.090000        1.21298121E-17
   48.232498        1.21161719E-17
   48.375000        1.21043448E-17
   48.517502        1.21026334E-17
   48.660000        1.21133363E-17
   48.802502        1.21313862E-17
   48.945000        1.21474335E-17
   49.087502        1.21534959E-17
   49.230000        1.21477536E-17
   49.372501        1.21356048E-17
   49.514999        1.21263569E-17
   49.657501        1.21275754E-17
   49.799999        1.21404926E-17
   49.942501        1.21592622E-17
   50.084999        1.21744815E-17
   50.227501        1.21788490E-17
   50.369999        1.21715359E-17
   50.512501        1.21586286E-17
   50.654999        1.21493972E-17
   50.797501        1.21506661E-17
   50.939999        1.21626859E-17
   51.082500        1.21790244E-17
   51.224998        1.21905081E-17
   51.367500        1.21908365E-17
   51.509998        1.21804364E-17
   51.652500        1.21662246E-17
   51.794998        1.21574167E-17
   51.937500        1.21599082E-17
   52.080002        1.21726600E-17
   52.222500        1.21882681E-17
   52.365002        1.21974060E-17
   52.507500        1.21944504E-17
   52.650002        1.21808946E-17
   52.792500        1.21644792E-17
   52.935001        1.21545588E-17
   53.077499        1.21564961E-17
   53.220001        1.21684811E-17
   53.362499        1.21827012E-17
   53.505001        1.21901483E-17
   53.647499        1.21861737E-17
   53.790001        1.21733987E-17
   53.932499        1.21602110E-17
   54.075001        1.21557185E-17
   54.217499        1.21642120E-17
   54.360001        1.21824654E-17
   54.502499        1.22015460E-17
   54.645000        1.22120562E-17
   54.787498        1.22096929E-17
   54.930000        1.21977707E-17
   55.072498        1.21852017E-17
   55.215000        1.21811312E-17
   55.357498        1.21894518E-17
   55.500000        1.22065041E-17
   55.642502        1.22233331E-17
   55.785000        1.22311524E-17
   55.927502        1.22267155E-17
   56.070000        1.22143599E-17
   56.212502        1.22034584E-17
   56.355000        1.22028215E-17
   56.497501        1.22153707E-17
   56.639999        1.22363190E-17
   56.782501        1.22559406E-17
   56.924999        1.22652836E-17
   57.067501        1.22614256E-17
   57.209999        1.22491188E-17
   57.352501        1.22378708E-17
   57.494999        1.22361983E-17
   57.637501        1.22465355E-17
   57.779999        1.22638170E-17
   57.922501        1.22785830E-17
   58.064999        1.22827114E-17
   58.207500        1.22743263E-17
   58.349998        1.22589259E-17
   58.492500        1.22460707E-17
   58.634998        1.22436255E-17
   58.777500        1.22530372E-17
   58.919998        1.22684815E-17
   59.062500        1.22803945E-17
   59.205002        1.22812506E-17
   59.347500        1.22701085E-17
   59.490002        1.22532100E-17
   59.632500        1.22402738E-17
   59.775002        1.22387327E-17
   59.917500        1.22493719E-17
   60.060001        1.22659825E-17
   60.202499        1.22791943E-17
   60.345001        1.22821556E-17
   60.487499        1.22746142E-17
   60.630001        1.22629526E-17
   60.772499        1.22561689E-17
   60.915001        1.22602858E-17
   61.057499        1.22745720E-17
   61.200001        1.22918907E-17
   61.342499        1.23029666E-17
   61.485001        1.23019930E-17
   61.627499        1.22901792E-17
   61.770000        1.22750939E-17
   61.912498        1.22661893E-17
   62.055000        1.22692119E-17
   62.197498        1.22828512E-17
   62.340000        1.22996496E-17
   62.482498        1.23105998E-17
   62.625000        1.23106180E-17
   62.767502        1.23015910E-17
   62.910000        1.22911272E-17
   63.052502        1.22877986E-17
   63.195000        1.22957610E-17
   63.337502        1.23120491E-17
   63.480000        1.23282163E-17
   63.622501        1.23353582E-17
   63.764999        1.23294918E-17
   63.907501        1.23140335E-17
   64.050003        1.22978563E-17
   64.192497        1.22900692E-17
   64.334999        1.22946435E-17
   64.477501        1.23081241E-17
   64.620003        1.23218065E-17
   64.762497        1.23270558E-17
   64.904999        1.23205723E-17
   65.047501        1.23064027E-17
   65.190002        1.22934904E-17
   65.332497        1.22902256E-17
   65.474998        1.22993006E-17
   65.617500        1.23159931E-17
   65.760002        1.23309352E-17
   65.902496        1.23357379E-17
   66.044998        1.23280848E-17
   66.187500        1.23132195E-17
   66.330002        1.23009111E-17
   66.472504        1.22996910E-17
   66.614998        1.23118034E-17
   66.757500        1.23318939E-17
   66.900002        1.23502243E-17
   67.042503        1.23584754E-17
   67.184998        1.23546762E-17
   67.327499        1.23442835E-17
   67.470001        1.23367933E-17
   67.612503        1.23399217E-17
   67.754997        1.23548664E-17
   67.897499        1.23755029E-17
   68.040001        1.23920101E-17
   68.182503        1.23967333E-17
   68.324997        1.23887800E-17
   68.467499        1.23745608E-17
   68.610001        1.23639629E-17
   68.752502        1.23644460E-17
   68.894997        1.23765873E-17
   69.037498        1.23937580E-17
   69.180000        1.24060954E-17
   69.322502        1.24063948E-17
   69.464996        1.23943717E-17
   69.607498        1.23767693E-17
   69.750000        1.23632706E-17
   69.892502        1.23607022E-17
   70.035004        1.23690311E-17
   70.177498        1.23815446E-17
   70.320000        1.23890877E-17
   70.462502        1.23857707E-17
   70.605003        1.23726698E-17
   70.747498        1.23572975E-17
   70.889999        1.23491349E-17
   71.032501        1.23539458E-17
   71.175003        1.23702735E-17
   71.317497        1.23902458E-17
   71.459999        1.24041904E-17
   71.602501        1.24062798E-17
   71.745003        1.23978153E-17
   71.887497        1.23861992E-17
   72.029999        1.23802642E-17
   72.172501        1.23848112E-17
   72.315002        1.23976796E-17
   72.457497        1.24111254E-17
   72.599998        1.24166452E-17
   72.742500        1.24103115E-17
   72.885002        1.23953362E-17
   73.027496        1.23802964E-17
   73.169998        1.23740595E-17
   73.312500        1.23804776E-17
   73.455002        1.23960360E-17
   73.597504        1.24119212E-17
   73.739998        1.24192409E-17
   73.882500        1.24142654E-17
   74.025002        1.24005433E-17
   74.167503        1.23866086E-17
   74.309998        1.23807067E-17
   74.452499        1.23857302E-17
   74.595001        1.23974588E-17
   74.737503        1.24071781E-17
   74.879997        1.24070871E-17
   75.022499        1.23952221E-17
   75.165001        1.23768661E-17
   75.307503        1.23615666E-17
   75.449997        1.23575076E-17
   75.592499        1.23666289E-17
   75.735001        1.23834381E-17
   75.877502        1.23982471E-17
   76.019997        1.24029215E-17
   76.162498        1.23956944E-17
   76.305000        1.23821452E-17
   76.447502        1.23717756E-17
   76.589996        1.23722347E-17
   76.732498        1.23846763E-17
   76.875000        1.24030588E-17
   77.017502        1.24178066E-17
   77.160004        1.24216315E-17
   77.302498        1.24139933E-17
   77.445000        1.24014913E-17
   77.587502        1.23939259E-17
   77.730003        1.23983836E-17
   77.872498        1.24148883E-17
   78.014999        1.24362511E-17
   78.157501        1.24522247E-17
   78.300003        1.24554888E-17
   78.442497        1.24458985E-17
   78.584999        1.24304666E-17
   78.727501        1.24191061E-17
   78.870003        1.24187016E-17
   79.012497        1.24290662E-17
   79.154999        1.24431969E-17
   79.297501        1.24516474E-17
   79.440002        1.24483651E-17
   79.582497        1.24344536E-17
   79.724998        1.24175882E-17
   79.867500        1.24074461E-17
   80.010002        1.24098872E-17
   80.152496        1.24233942E-17
   80.294998        1.24399320E-17
   80.437500        1.24496919E-17
   80.580002        1.24468861E-17
   80.722504        1.24331318E-17
   80.864998        1.24164029E-17
   81.007500        1.24062170E-17
   81.150002        1.24079664E-17
   81.292503        1.24197960E-17
   81.434998        1.24338853E-17
   81.577499        1.24413093E-17
   81.720001        1.24375125E-17
   81.862503        1.24250742E-17
   82.004997        1.24120891E-17
   82.147499        1.24071641E-17
   82.290001        1.24140826E-17
   82.432503        1.24293739E-17
   82.574997        1.24442871E-17
   82.717499        1.24499798E-17
   82.860001        1.24428032E-17
   83.002502        1.24264928E-17
   83.144997        1.24099583E-17
   83.287498        1.24020033E-17
   83.430000        1.24061723E-17
   83.572502        1.24188124E-17
   83.714996        1.24315072E-17
   83.857498        1.24363528E-17
   84.000000        1.24308686E-17
   84.142502        1.24195346E-17
   84.285004        1.24110154E-17
   84.427498        1.24127649E-17
   84.570000        1.24263034E-17
   84.712502        1.24460589E-17
   84.855003        1.24625248E-17
   84.997498        1.24678510E-17
   85.139999        1.24605156E-17
   85.282501        1.24462360E-17
   85.425003        1.24345768E-17
   85.567497        1.24332608E-17
   85.709999        1.24436204E-17
   85.852501        1.24599134E-17
   85.995003        1.24729067E-17
   86.137497        1.24755537E-17
   86.279999        1.24673109E-17
   86.422501        1.24544755E-17
   86.565002        1.24463311E-17
   86.707497        1.24494148E-17
   86.849998        1.24633983E-17
   86.992500        1.24811041E-17
   87.135002        1.24926879E-17
   87.277496        1.24914910E-17
   87.419998        1.24780750E-17
   87.562500        1.24599729E-17
   87.705002        1.24473063E-17
   87.847504        1.24468588E-17
   87.989998        1.24581531E-17
   88.132500        1.24738704E-17
   88.275002        1.24843392E-17
   88.417503        1.24833780E-17
   88.559998        1.24719927E-17
   88.702499        1.24576825E-17
   88.845001        1.24498011E-17
   88.987503        1.24537740E-17
   89.129997        1.24676715E-17
   89.272499        1.24832258E-17
   89.415001        1.24907068E-17
   89.557503        1.24847321E-17
   89.699997        1.24675400E-17
   89.842499        1.24477530E-17
   89.985001        1.24353676E-17
   90.127502        1.24359665E-17
   90.269997        1.24475917E-17
   90.412498        1.24621286E-17
   90.555000        1.24703292E-17
   90.697502        1.24674258E-17
   90.839996        1.24559686E-17
   90.982498        1.24441845E-17
   91.125000        1.24408882E-17
   91.267502        1.24500393E-17
   91.410004        1.24682373E-17
   91.552498        1.24866752E-17
   91.695000        1.24963656E-17
   91.837502        1.24935019E-17
   91.980003        1.24817021E-17