  -30.000000        9.78447028E-19
  -29.857500        9.80199307E-19
  -29.715000        9.83397394E-19
  -29.572500        9.87513134E-19
  -29.430000        9.91905360E-19
  -29.287500        9.95947895E-19
  -29.145000        9.99148670E-19
  -29.002501        1.00123947E-18
  -28.860001        1.00221565E-18
  -28.717501        1.00232742E-18
  -28.575001        1.00202147E-18
  -28.432501        1.00184724E-18
  -28.290001        1.00234541E-18
  -28.147499        1.00393484E-18
  -28.004999        1.00682098E-18
  -27.862499        1.01094664E-18
  -27.719999        1.01599317E-18
  -27.577499        1.02143933E-18
  -27.434999        1.02666463E-18
  -27.292500        1.03107743E-18
  -27.150000        1.03423860E-18
  -27.007500        1.03595211E-18
  -26.865000        1.03630366E-18
  -26.722500        1.03563964E-18
  -26.580000        1.03449420E-18
  -26.437500        1.03348018E-18
  -26.295000        1.03316916E-18
  -26.152500        1.03398280E-18
  -26.010000        1.03611641E-18
  -25.867500        1.03950299E-18
  -25.725000        1.04382862E-18
  -25.582500        1.04859122E-18
  -25.440001        1.05320244E-18
  -25.297501        1.05710063E-18
  -25.155001        1.05986859E-18
  -25.012501        1.06132339E-18
  -24.870001        1.06155283E-18
  -24.727501        1.06090205E-18
  -24.584999        1.05989619E-18
  -24.442499        1.05912940E-18
  -24.299999        1.05913963E-18
  -24.157499        1.06029593E-18
  -24.014999        1.06272660E-18
  -23.872499        1.06629743E-18
  -23.730000        1.07064541E-18
  -23.587500        1.07525187E-18
  -23.445000        1.07954918E-18
  -23.302500        1.08302923E-18
  -23.160000        1.08534585E-18
  -23.017500        1.08638055E-18
  -22.875000        1.08627188E-18
  -22.732500        1.08538980E-18
  -22.590000        1.08426276E-18
  -22.447500        1.08347219E-18
  -22.305000        1.08352802E-18
  -22.162500        1.08475866E-18
  -22.020000        1.08724227E-18
  -21.877501        1.09078860E-18
  -21.735001        1.09498209E-18
  -21.592501        1.09927227E-18
  -21.450001        1.10309239E-18
  -21.307501        1.10597719E-18
  -21.165001        1.10765740E-18
  -21.022499        1.10811017E-18
  -20.879999        1.10756361E-18
  -20.737499        1.10645199E-18
  -20.594999        1.10533074E-18
  -20.452499        1.10476929E-18
  -20.309999        1.10523624E-18
  -20.167500        1.10700392E-18
  -20.025000        1.11008641E-18
  -19.882500        1.11423100E-18
  -19.740000        1.11896485E-18
  -19.597500        1.12369271E-18
  -19.455000        1.12782075E-18
  -19.312500        1.13088701E-18
  -19.170000        1.13266069E-18
  -19.027500        1.13319174E-18
  -18.885000        1.13280058E-18
  -18.742500        1.13201021E-18
  -18.600000        1.13144070E-18
  -18.457500        1.13168224E-18
  -18.315001        1.13317974E-18
  -18.172501        1.13614322E-18
  -18.030001        1.14050174E-18
  -17.887501        1.14590881E-18
  -17.745001        1.15179948E-18
  -17.602501        1.15748645E-18
  -17.459999        1.16229050E-18
  -17.317499        1.16566964E-18
  -17.174999        1.16732710E-18
  -17.032499        1.16727427E-18
  -16.889999        1.16583053E-18
  -16.747499        1.16355868E-18
  -16.605000        1.16115365E-18
  -16.462500        1.15930304E-18
  -16.320000        1.15855465E-18
  -16.177500        1.15921680E-18
  -16.035000        1.16130895E-18
  -15.892500        1.16456990E-18
  -15.750000        1.16852000E-18
  -15.607500        1.17255912E-18
  -15.465000        1.17608136E-18
  -15.322500        1.17859413E-18
  -15.180000        1.17980926E-18
  -15.037500        1.17969986E-18
  -14.895000        1.17850376E-18
  -14.752500        1.17667238E-18
  -14.610000        1.17477752E-18
  -14.467500        1.17338713E-18
  -14.325000        1.17294138E-18
  -14.182500        1.17365628E-18
  -14.040000        1.17547514E-18
  -13.897500        1.17808293E-18
  -13.755000        1.18097579E-18
  -13.612500        1.18356921E-18
  -13.470000        1.18532190E-18
  -13.327500        1.18584819E-18
  -13.185000        1.18499878E-18
  -13.042500        1.18289247E-18
  -12.900000        1.17990035E-18
  -12.757500        1.17658243E-18
  -12.615000        1.17358814E-18
  -12.472500        1.17153694E-18
  -12.330000        1.17090249E-18
  -12.187500        1.17192126E-18
  -12.045000        1.17454219E-18
  -11.902500        1.17843697E-18
  -11.760000        1.18306504E-18
  -11.617500        1.18778163E-18
  -11.475000        1.19196840E-18
  -11.332500        1.19515573E-18
  -11.190000        1.19710674E-18
  -11.047500        1.19785513E-18
  -10.905000        1.19768153E-18
  -10.762500        1.19704636E-18
  -10.620000        1.19648780E-18
  -10.477500        1.19650869E-18
  -10.335000        1.19747691E-18
  -10.192500        1.19954775E-18
  -10.050000        1.20263086E-18
  -9.9075003        1.20640125E-18
  -9.7650003        1.21036004E-18
  -9.6225004        1.21392818E-18
  -9.4799995        1.21656534E-18
  -9.3374996        1.21787880E-18
  -9.1949997        1.21770747E-18
  -9.0524998        1.21615640E-18
  -8.9099998        1.21357198E-18
  -8.7674999        1.21046974E-18
  -8.6250000        1.20742582E-18
  -8.4825001        1.20496330E-18
  -8.3400002        1.20345194E-18
  -8.1975002        1.20304673E-18
  -8.0550003        1.20366939E-18
  -7.9124999        1.20503816E-18
  -7.7700000        1.20673388E-18
  -7.6275001        1.20828774E-18
  -7.4850001        1.20928005E-18
  -7.3425002        1.20942977E-18
  -7.1999998        1.20865791E-18
  -7.0574999        1.20710922E-18
  -6.9150000        1.20513008E-18
  -6.7725000        1.20319955E-18
  -6.6300001        1.20182633E-18
  -6.4875002        1.20143962E-18
  -6.3449998        1.20229192E-18
  -6.2024999        1.20440010E-18
  -6.0599999        1.20754400E-18
  -5.9175000        1.21131005E-18
  -5.7750001        1.21518147E-18
  -5.6325002        1.21864311E-18
  -5.4899998        1.22128275E-18
  -5.3474998        1.22286949E-18
  -5.2049999        1.22339392E-18
  -5.0625000        1.22306698E-18
  -4.9200001        1.22227526E-18
  -4.7775002        1.22150609E-18
  -4.6350002        1.22124563E-18
  -4.4924998        1.22188039E-18
  -4.3499999        1.22360568E-18
  -4.2075000        1.22637549E-18
  -4.0650001        1.22989877E-18
  -3.9224999        1.23368787E-18
  -3.7800000        1.23715552E-18
  -3.6375000        1.23973570E-18
  -3.4949999        1.24100067E-18
  -3.3525000        1.24075231E-18
  -3.2100000        1.23906269E-18
  -3.0675001        1.23626175E-18
  -2.9250000        1.23287341E-18
  -2.7825000        1.22951671E-18
  -2.6400001        1.22679353E-18
  -2.4974999        1.22518001E-18
  -2.3550000        1.22494354E-18
  -2.2125001        1.22610035E-18
  -2.0699999        1.22841491E-18
  -1.9275000        1.23144932E-18
  -1.7850000        1.23465133E-18
  -1.6425000        1.23746974E-18
  -1.5000000        1.23946925E-18
  -1.3575000        1.24042412E-18
  -1.2150000        1.24036725E-18
  -1.0725000        1.23957895E-18
 -0.93000001        1.23852347E-18
 -0.78750002        1.23774592E-18
 -0.64499998        1.23774912E-18
 -0.50250000        1.23888433E-18
 -0.36000001        1.24127529E-18
 -0.21750000        1.24478760E-18
 -7.50000030E-02    1.24905389E-18
  6.75000027E-02    1.25354073E-18
  0.20999999        1.25764757E-18
  0.35249999        1.26082209E-18
  0.49500000        1.26266804E-18
  0.63749999        1.26302735E-18
  0.77999997        1.26201736E-18
  0.92250001        1.26001807E-18
   1.0650001        1.25759991E-18
   1.2075000        1.25541005E-18
   1.3500000        1.25404500E-18
   1.4924999        1.25392268E-18
   1.6350000        1.25519798E-18
   1.7775000        1.25773267E-18
   1.9200000        1.26112535E-18
   2.0625000        1.26479504E-18
   2.2049999        1.26809828E-18
   2.3475001        1.27045450E-18
   2.4900000        1.27145580E-18
   2.6324999        1.27094337E-18
   2.7750001        1.26903785E-18
   2.9175000        1.26611946E-18
   3.0599999        1.26276131E-18
   3.2025001        1.25962567E-18
   3.3450000        1.25734266E-18
   3.4875000        1.25638892E-18
   3.6300001        1.25699452E-18
   3.7725000        1.25910414E-18
   3.9150000        1.26238670E-18
   4.0574999        1.26631322E-18
   4.1999998        1.27026704E-18
   4.3425002        1.27367161E-18
   4.4850001        1.27610156E-18
   4.6275001        1.27735939E-18
   4.7700000        1.27749246E-18
   4.9124999        1.27676837E-18
   5.0549998        1.27560236E-18
   5.1975002        1.27446612E-18
   5.3400002        1.27378618E-18
   5.4825001        1.27385732E-18
   5.6250000        1.27477962E-18
   5.7674999        1.27643626E-18
   5.9099998        1.27851300E-18
   6.0524998        1.28056193E-18
   6.1950002        1.28209635E-18
   6.3375001        1.28270153E-18
   6.4800000        1.28213553E-18
   6.6224999        1.28039277E-18
   6.7649999        1.27771870E-18
   6.9074998        1.27456859E-18
   7.0500002        1.27151733E-18
   7.1925001        1.26914766E-18
   7.3350000        1.26793532E-18
   7.4775000        1.26816176E-18
   7.6199999        1.26986534E-18
   7.7624998        1.27284050E-18
   7.9050002        1.27668276E-18
   8.0474997        1.28086323E-18
   8.1899996        1.28482852E-18
   8.3325005        1.28810333E-18
   8.4750004        1.29037859E-18
   8.6175003        1.29157149E-18
   8.7600002        1.29183805E-18
   8.9025002        1.29154089E-18
   9.0450001        1.29116586E-18
   9.1875000        1.29121560E-18
   9.3299999        1.29209272E-18
   9.4724998        1.29400651E-18
   9.6149998        1.29692376E-18
   9.7574997        1.30057039E-18
   9.8999996        1.30448461E-18
   10.042500        1.30811231E-18
   10.185000        1.31091253E-18
   10.327500        1.31246111E-18
   10.470000        1.31253204E-18
   10.612500        1.31114186E-18
   10.755000        1.30854782E-18
   10.897500        1.30520622E-18
   11.040000        1.30169298E-18
   11.182500        1.29859787E-18
   11.325000        1.29641577E-18
   11.467500        1.29545097E-18
   11.610000        1.29576488E-18
   11.752500        1.29716902E-18
   11.895000        1.29927358E-18
   12.037500        1.30157965E-18
   12.180000        1.30359115E-18
   12.322500        1.30492095E-18
   12.465000        1.30536866E-18
   12.607500        1.30495600E-18
   12.750000        1.30391696E-18
   12.892500        1.30264289E-18
   13.035000        1.30160395E-18
   13.177500        1.30125250E-18
   13.320000        1.30193265E-18
   13.462500        1.30380560E-18
   13.605000        1.30680837E-18
   13.747500        1.31065579E-18
   13.890000        1.31488641E-18
   14.032500        1.31894910E-18
   14.175000        1.32231314E-18
   14.317500        1.32457683E-18
   14.460000        1.32555218E-18
   14.602500        1.32530030E-18
   14.745000        1.32411702E-18
   14.887500        1.32246400E-18
   15.030000        1.32087106E-18
   15.172500        1.31982798E-18
   15.315000        1.31969098E-18
   15.457500        1.32061753E-18
   15.600000        1.32254310E-18
   15.742500        1.32519535E-18
   15.885000        1.32814797E-18
   16.027500        1.33090176E-18
   16.170000        1.33297974E-18
   16.312500        1.33402736E-18
   16.455000        1.33388943E-18
   16.597500        1.33265352E-18
   16.740000        1.33064368E-18
   16.882500        1.32836087E-18
   17.025000        1.32638411E-18
   17.167500        1.32525087E-18
   17.309999        1.32534362E-18
   17.452499        1.32681207E-18
   17.594999        1.32954456E-18
   17.737499        1.33319222E-18
   17.879999        1.33723889E-18
   18.022499        1.34109624E-18
   18.165001        1.34421079E-18
   18.307501        1.34615755E-18
   18.450001        1.34671218E-18
   18.592501        1.34588820E-18
   18.735001        1.34393130E-18
   18.877501        1.34127553E-18
   19.020000        1.33846012E-18
   19.162500        1.33602676E-18
   19.305000        1.33441324E-18
   19.447500        1.33386544E-18
   19.590000        1.33439598E-18
   19.732500        1.33578843E-18
   19.875000        1.33765476E-18
   20.017500        1.33952874E-18
   20.160000        1.34096958E-18
   20.302500        1.34165904E-18
   20.445000        1.34145896E-18
   20.587500        1.34043812E-18
   20.730000        1.33885003E-18
   20.872499        1.33707966E-18
   21.014999        1.33556458E-18
   21.157499        1.33470824E-18
   21.299999        1.33480005E-18
   21.442499        1.33595180E-18
   21.584999        1.33807238E-18
   21.727501        1.34088273E-18
   21.870001        1.34397338E-18
   22.012501        1.34689157E-18
   22.155001        1.34924304E-18
   22.297501        1.35077984E-18
   22.440001        1.35145668E-18
   22.582500        1.35143869E-18
   22.725000        1.35106294E-18
   22.867500        1.35076123E-18
   23.010000        1.35096513E-18
   23.152500        1.35201379E-18
   23.295000        1.35408112E-18
   23.437500        1.35713434E-18
   23.580000        1.36093296E-18
   23.722500        1.36506318E-18
   23.865000        1.36900914E-18
   24.007500        1.37224724E-18
   24.150000        1.37434518E-18
   24.292500        1.37505128E-18
   24.434999        1.37435139E-18
   24.577499        1.37247844E-18
   24.719999        1.36986672E-18
   24.862499        1.36706496E-18
   25.004999        1.36462426E-18
   25.147499        1.36298510E-18
   25.290001        1.36239459E-18
   25.432501        1.36286567E-18
   25.575001        1.36418968E-18
   25.717501        1.36599045E-18
   25.860001        1.36780632E-18
   26.002501        1.36918936E-18
   26.145000        1.36979455E-18
   26.287500        1.36945055E-18
   26.430000        1.36820016E-18
   26.572500        1.36630302E-18
   26.715000        1.36419102E-18
   26.857500        1.36239087E-18
   27.000000        1.36141749E-18
   27.142500        1.36166543E-18
   27.285000        1.36331835E-18
   27.427500        1.36630385E-18
   27.570000        1.37030151E-18
   27.712500        1.37480830E-18
   27.855000        1.37923909E-18
   27.997499        1.38304247E-18
   28.139999        1.38580660E-18
   28.282499        1.38732706E-18
   28.424999        1.38763322E-18
   28.567499        1.38696858E-18
   28.709999        1.38573194E-18
   28.852501        1.38439615E-18
   28.995001        1.38341222E-18
   29.137501        1.38311888E-18
   29.280001        1.38367474E-18
   29.422501        1.38501829E-18
   29.565001        1.38687862E-18
   29.707500        1.38882849E-18
   29.850000        1.39037822E-18
   29.992500        1.39108711E-18
   30.135000        1.39066959E-18
   30.277500        1.38906714E-18
   30.420000        1.38647382E-18
   30.562500        1.38330386E-18
   30.705000        1.38011115E-18
   30.847500        1.37748433E-18
   30.990000        1.37593316E-18
   31.132500        1.37579213E-18
   31.275000        1.37716070E-18
   31.417500        1.37988285E-18
   31.559999        1.38357424E-18
   31.702499        1.38768760E-18
   31.844999        1.39160823E-18
   31.987499        1.39477075E-18
   32.130001        1.39676074E-18
   32.272499        1.39740129E-18
   32.415001        1.39678752E-18
   32.557499        1.39526830E-18
   32.700001        1.39337675E-18
   32.842499        1.39172187E-18
   32.985001        1.39086656E-18
   33.127499        1.39121739E-18
   33.270000        1.39295064E-18
   33.412498        1.39598330E-18
   33.555000        1.39999585E-18
   33.697498        1.40449405E-18
   33.840000        1.40890086E-18
   33.982498        1.41265791E-18
   34.125000        1.41532185E-18
   34.267502        1.41664130E-18
   34.410000        1.41659808E-18
   34.552502        1.41540653E-18
   34.695000        1.41346431E-18
   34.837502        1.41127021E-18
   34.980000        1.40931776E-18
   35.122501        1.40799210E-18
   35.264999        1.40749310E-18
   35.407501        1.40780319E-18
   35.549999        1.40870234E-18
   35.692501        1.40983102E-18
   35.834999        1.41077701E-18
   35.977501        1.41116950E-18
   36.119999        1.41075860E-18
   36.262501        1.40946996E-18
   36.404999        1.40742351E-18
   36.547501        1.40491984E-18
   36.689999        1.40239188E-18
   36.832500        1.40033261E-18
   36.974998        1.39920599E-18
   37.117500        1.39935974E-18
   37.259998        1.40095165E-18
   37.402500        1.40391068E-18
   37.544998        1.40794329E-18
   37.687500        1.41258709E-18
   37.830002        1.41730077E-18
   37.972500        1.42156872E-18
   38.115002        1.42499738E-18
   38.257500        1.42738183E-18
   38.400002        1.42872579E-18
   38.542500        1.42921983E-18
   38.685001        1.42918539E-18
   38.827499        1.42899628E-18
   38.970001        1.42900269E-18
   39.112499        1.42945847E-18
   39.255001        1.43047363E-18
   39.397499        1.43199357E-18
   39.540001        1.43380892E-18
   39.682499        1.43559687E-18
   39.825001        1.43698943E-18
   39.967499        1.43765976E-18
   40.110001        1.43740395E-18
   40.252499        1.43619999E-18
   40.395000        1.43422892E-18
   40.537498        1.43184954E-18
   40.680000        1.42952599E-18
   40.822498        1.42773462E-18
   40.965000        1.42686588E-18
   41.107498        1.42714629E-18
   41.250000        1.42859624E-18
   41.392502        1.43103052E-18
   41.535000        1.43409544E-18
   41.677502        1.43733550E-18
   41.820000        1.44027685E-18
   41.962502        1.44250673E-18
   42.105000        1.44374801E-18
   42.247501        1.44390694E-18
   42.389999        1.44308534E-18
   42.532501        1.44155847E-18
   42.674999        1.43971447E-18
   42.817501        1.43796881E-18
   42.959999        1.43667221E-18
   43.102501        1.43603259E-18
   43.244999        1.43607602E-18
   43.387501        1.43664832E-18
   43.529999        1.43745958E-18
   43.672501        1.43816144E-18
   43.814999        1.43843296E-18
   43.957500        1.43805722E-18
   44.099998        1.43697371E-18
   44.242500        1.43529619E-18
   44.384998        1.43329855E-18
   44.527500        1.43136512E-18
   44.669998        1.42992086E-18
   44.812500        1.42935073E-18
   44.955002        1.42992024E-18
   45.097500        1.43171109E-18
   45.240002        1.43459650E-18
   45.382500        1.43825378E-18
   45.525002        1.44222155E-18
   45.667500        1.44599143E-18
   45.810001        1.44910928E-18
   45.952499        1.45126512E-18
   46.095001        1.45235173E-18
   46.237499        1.45247373E-18
   46.380001        1.45191766E-18
   46.522499        1.45108479E-18
   46.665001        1.45040868E-18
   46.807499        1.45027064E-18
   46.950001        1.45093094E-18
   47.092499        1.45248459E-18
   47.235001        1.45484309E-18
   47.377499        1.45774980E-18
   47.520000        1.46082795E-18
   47.662498        1.46365236E-18
   47.805000        1.46583704E-18
   47.947498        1.46711928E-18
   48.090000        1.46742006E-18
   48.232498        1.46686182E-18
   48.375000        1.46574119E-18
   48.517502        1.46446000E-18
   48.660000        1.46343212E-18
   48.802502        1.46298823E-18
   48.945000        1.46330825E-18
   49.087502        1.46438741E-18
   49.230000        1.46604187E-18
   49.372501        1.46795246E-18
   49.514999        1.46972614E-18
   49.657501        1.47097156E-18
   49.799999        1.47136923E-18
   49.942501        1.47073395E-18
   50.084999        1.46905674E-18
   50.227501        1.46651905E-18
   50.369999        1.46346965E-18
   50.512501        1.46037052E-18
   50.654999        1.45771010E-18
   50.797501        1.45590788E-18
   50.939999        1.45522649E-18
   51.082500        1.45571876E-18
   51.224998        1.45721948E-18
   51.367500        1.45938545E-18
   51.509998        1.46177228E-18
   51.652500        1.46392646E-18
   51.794998        1.46547236E-18
   51.937500        1.46618032E-18
   52.080002        1.46600145E-18
   52.222500        1.46506994E-18
   52.365002        1.46367748E-18
   52.507500        1.46221730E-18
   52.650002        1.46111446E-18
   52.792500        1.46074647E-18
   52.935001        1.46136469E-18
   53.077499        1.46303766E-18
   53.220001        1.46563056E-18
   53.362499        1.46882503E-18
   53.505001        1.47218028E-18
   53.647499        1.47522565E-18
   53.790001        1.47755633E-18
   53.932499        1.47891663E-18
   54.075001        1.47924585E-18
   54.217499        1.47868440E-18
   54.360001        1.47753844E-18
   54.502499        1.47622033E-18
   54.645000        1.47516712E-18
   54.787498        1.47476088E-18
   54.930000        1.47525946E-18
   55.072498        1.47674642E-18
   55.215000        1.47911009E-18
   55.357498        1.48205692E-18
   55.500000        1.48516257E-18
   55.642502        1.48795472E-18
   55.785000        1.49000861E-18
   55.927502        1.49103793E-18
   56.070000        1.49095666E-18
   56.212502        1.48989539E-18
   56.355000        1.48816978E-18
   56.497501        1.48620999E-18
   56.639999        1.48446929E-18
   56.782501        1.48333295E-18
   56.924999        1.48304943E-18
   57.067501        1.48368708E-18
   57.209999        1.48512938E-18
   57.352501        1.48709703E-18
   57.494999        1.48919931E-18
   57.637501        1.49100784E-18
   57.779999        1.49214087E-18
   57.922501        1.49234322E-18
   58.064999        1.49155326E-18
   58.207500        1.48992640E-18
   58.349998        1.48781441E-18
   58.492500        1.48569734E-18
   58.634998        1.48408279E-18
   58.777500        1.48339364E-18
   58.919998        1.48387837E-18
   59.062500        1.48556013E-18
   59.205002        1.48823947E-18
   59.347500        1.49154054E-18
   59.490002        1.49499071E-18
   59.632500        1.49810846E-18
   59.775002        1.50049136E-18
   59.917500        1.50188227E-18
   60.060001        1.50221221E-18
   60.202499        1.50161436E-18
   60.345001        1.50040254E-18
   60.487499        1.49901660E-18
   60.630001        1.49793713E-18
   60.772499        1.49758455E-18
   60.915001        1.49822303E-18
   61.057499        1.49989497E-18
   61.200001        1.50240432E-18
   61.342499        1.50535684E-18
   61.485001        1.50824597E-18
   61.627499        1.51056198E-18
   61.770000        1.51190253E-18
   61.912498        1.51205007E-18
   62.055000        1.51100989E-18
   62.197498        1.50899964E-18
   62.340000        1.50640581E-18
   62.482498        1.50371116E-18
   62.625000        1.50141274E-18
   62.767502        1.49993415E-18
   62.910000        1.49955231E-18
   63.052502        1.50034226E-18
   63.195000        1.50215989E-18
   63.337502        1.50466221E-18
   63.480000        1.50737433E-18
   63.622501        1.50978763E-18
   63.764999        1.51146691E-18
   63.907501        1.51214220E-18
   64.050003        1.51176366E-18
   64.192497        1.51050449E-18
   64.334999        1.50871612E-18
   64.477501        1.50685093E-18
   64.620003        1.50536997E-18
   64.762497        1.50465828E-18
   64.904999        1.50496207E-18
   65.047501        1.50634977E-18
   65.190002        1.50870558E-18
   65.332497        1.51174991E-18
   65.474998        1.51508831E-18
   65.617500        1.51828278E-18
   65.760002        1.52093420E-18
   65.902496        1.52276124E-18
   66.044998        1.52365676E-18
   66.187500        1.52370350E-18
   66.330002        1.52314681E-18
   66.472504        1.52232872E-18
   66.614998        1.52160277E-18
   66.757500        1.52125329E-18
   66.900002        1.52143464E-18
   67.042503        1.52214974E-18
   67.184998        1.52325899E-18
   67.327499        1.52451858E-18
   67.470001        1.52563124E-18
   67.612503        1.52630550E-18
   67.754997        1.52631087E-18
   67.897499        1.52552722E-18
   68.040001        1.52398040E-18
   68.182503        1.52185309E-18
   68.324997        1.51946564E-18
   68.467499        1.51722171E-18
   68.610001        1.51553054E-18
   68.752502        1.51471577E-18
   68.894997        1.51494438E-18
   69.037498        1.51618773E-18
   69.180000        1.51822901E-18
   69.322502        1.52071355E-18
   69.464996        1.52322611E-18
   69.607498        1.52537440E-18
   69.750000        1.52685619E-18
   69.892502        1.52750625E-18
   70.035004        1.52731404E-18
   70.177498        1.52641872E-18
   70.320000        1.52508603E-18
   70.462502        1.52366317E-18
   70.605003        1.52252166E-18
   70.747498        1.52198844E-18
   70.889999        1.52227454E-18
   71.032501        1.52342598E-18
   71.175003        1.52530171E-18
   71.317497        1.52760138E-18
   71.459999        1.52992979E-18
   71.602501        1.53188793E-18
   71.745003        1.53316210E-18
   71.887497        1.53359099E-18
   72.029999        1.53319260E-18
   72.172501        1.53214932E-18
   72.315002        1.53076142E-18
   72.457497        1.52938302E-18
   72.599998        1.52835980E-18
   72.742500        1.52796875E-18
   72.885002        1.52837779E-18
   73.027496        1.52961629E-18
   73.169998        1.53156678E-18
   73.312500        1.53398453E-18
   73.455002        1.53653917E-18
   73.597504        1.53888526E-18
   73.739998        1.54073784E-18
   73.882500        1.54194221E-18
   74.025002        1.54250790E-18
   74.167503        1.54260354E-18
   74.309998        1.54250976E-18
   74.452499        1.54254161E-18
   74.595001        1.54296678E-18
   74.737503        1.54393964E-18
   74.879997        1.54546693E-18
   75.022499        1.54740605E-18
   75.165001        1.54949230E-18
   75.307503        1.55139058E-18
   75.449997        1.55275574E-18
   75.592499        1.55329464E-18
   75.735001        1.55282884E-18
   75.877502        1.55134219E-18
   76.019997        1.54900230E-18
   76.162498        1.54614770E-18
   76.305000        1.54323396E-18
   76.447502        1.54074704E-18
   76.589996        1.53910250E-18
   76.732498        1.53855480E-18
   76.875000        1.53914427E-18
   77.017502        1.54069131E-18
   77.160004        1.54284229E-18
   77.302498        1.54514712E-18
   77.445000        1.54715448E-18
   77.587502        1.54849544E-18
   77.730003        1.54894967E-18
   77.872498        1.54848118E-18
   78.014999        1.54724537E-18
   78.157501        1.54556402E-18
   78.300003        1.54387595E-18
   78.442497        1.54266031E-18
   78.584999        1.54234288E-18
   78.727501        1.54320604E-18
   78.870003        1.54532073E-18
   79.012497        1.54851964E-18
   79.154999        1.55242921E-18
   79.297501        1.55654805E-18
   79.440002        1.56035649E-18
   79.582497        1.56342657E-18
   79.724998        1.56550569E-18
   79.867500        1.56655228E-18
   80.010002        1.56672320E-18
   80.152496        1.56632294E-18
   80.294998        1.56572924E-18
   80.437500        1.56531306E-18
   80.580002        1.56536590E-18
   80.722504        1.56604263E-18
   80.864998        1.56732425E-18
   81.007500        1.56901004E-18
   81.150002        1.57074164E-18
   81.292503        1.57206978E-18
   81.434998        1.57254696E-18
   81.577499        1.57183207E-18
   81.720001        1.56977973E-18
   81.862503        1.56649076E-18
   82.004997        1.56230378E-18
   82.147499        1.55773257E-18
   82.290001        1.55336247E-18
   82.432503        1.54973642E-18
   82.574997        1.54725767E-18
   82.717499        1.54612661E-18
   82.860001        1.54632192E-18
   83.002502        1.54761894E-18
   83.144997        1.54964026E-18
   83.287498        1.55192576E-18
   83.430000        1.55401305E-18
   83.572502        1.55552121E-18
   83.714996        1.55622017E-18
   83.857498        1.55607769E-18
   84.000000        1.55526840E-18
   84.142502        1.55413454E-18
   84.285004        1.55310687E-18
   84.427498        1.55260178E-18
   84.570000        1.55292127E-18
   84.712502        1.55418438E-18
   84.855003        1.55629948E-18
   84.997498        1.55899164E-18
   85.139999        1.56186413E-18
   85.282501        1.56448071E-18
   85.425003        1.56644919E-18
   85.567497        1.56748855E-18
   85.709999        1.56747335E-18
   85.852501        1.56645933E-18
   85.995003        1.56467375E-18
   86.137497        1.56248338E-18
   86.279999        1.56033312E-18
   86.422501        1.55866604E-18
   86.565002        1.55783421E-18
   86.707497        1.55802715E-18
   86.849998        1.55923483E-18
   86.992500        1.56125605E-18
   87.135002        1.56375114E-18
   87.277496        1.56632646E-18
   87.419998        1.56862499E-18
   87.562500        1.57039619E-18
   87.705002        1.57153791E-18
   87.847504        1.57210122E-18
   87.989998        1.57226551E-18
   88.132500        1.57229943E-18
   88.275002        1.57250529E-18
   88.417503        1.57316797E-18
   88.559998        1.57449807E-18
   88.702499        1.57658391E-18
   88.845001        1.57935910E-18
   88.987503        1.58259979E-18
   89.129997        1.58595794E-18
   89.272499        1.58903112E-18
   89.415001        1.59145280E-18
   89.557503        1.59297905E-18
   89.699997        1.59355073E-18
   89.842499        1.59330444E-18
   89.985001        1.59254157E-18
   90.127502        1.59165701E-18
   90.269997        1.59105306E-18
   90.412498        1.59106071E-18
   90.555000        1.59188252E-18
   90.697502        1.59355869E-18
   90.839996        1.59596403E-18
   90.982498        1.59882194E-18
   91.125000        1.60174220E-18
   91.267502        1.60428051E-18
   91.410004        1.60601386E-18
   91.552498        1.60662287E-18
   91.695000        1.60596589E-18
   91.837502        1.60412282E-18
   91.980003        1.60139013E-18