  -30.0000000         9.84044911E-18
  -29.8575001         9.85751136E-18
  -29.7150002         9.88334669E-18
  -29.5725002         9.90642503E-18
  -29.4300003         9.91863835E-18
  -29.2875004         9.91982867E-18
  -29.1450005         9.91749519E-18
  -29.0025005         9.92190241E-18
  -28.8600006         9.93955858E-18
  -28.7175007         9.96902606E-18
  -28.5750008         1.00015789E-17
  -28.4325008         1.00263141E-17
  -28.2900009         1.00366365E-17
  -28.1474991         1.00342054E-17
  -28.0049992         1.00279643E-17
  -27.8624992         1.00288411E-17
  -27.7199993         1.00432829E-17
  -27.5774994         1.00695062E-17
  -27.4349995         1.00986866E-17
  -27.2924995         1.01203372E-17
  -27.1499996         1.01286306E-17
  -27.0074997         1.01258504E-17
  -26.8649998         1.01209270E-17
  -26.7224998         1.01239677E-17
  -26.5799999         1.01401110E-17
  -26.4375000         1.01664211E-17
  -26.2950001         1.01936941E-17
  -26.1525002         1.02120468E-17
  -26.0100002         1.02169213E-17
  -25.8675003         1.02118400E-17
  -25.7250004         1.02062739E-17
  -25.5825005         1.02099102E-17
  -25.4400005         1.02267946E-17
  -25.2975006         1.02528971E-17
  -25.1550007         1.02785612E-17
  -25.0125008         1.02943479E-17
  -24.8700008         1.02967327E-17
  -24.7275009         1.02902145E-17
  -24.5849991         1.02845599E-17
  -24.4424992         1.02888745E-17
  -24.2999992         1.03060955E-17
  -24.1574993         1.03312493E-17
  -24.0149994         1.03545203E-17
  -23.8724995         1.03672713E-17
  -23.7299995         1.03673408E-17
  -23.5874996         1.03604033E-17
  -23.4449997         1.03565412E-17
  -23.3024998         1.03641008E-17
  -23.1599998         1.03845594E-17
  -23.0174999         1.04115205E-17
  -22.8750000         1.04344856E-17
  -22.7325001         1.04451248E-17
  -22.5900002         1.04422826E-17
  -22.4475002         1.04326707E-17
  -22.3050003         1.04268366E-17
  -22.1625004         1.04328097E-17
  -22.0200005         1.04512798E-17
  -21.8775005         1.04752134E-17
  -21.7350006         1.04941443E-17
  -21.5925007         1.05005583E-17
  -21.4500008         1.04944992E-17
  -21.3075008         1.04835886E-17
  -21.1650009         1.04784394E-17
  -21.0224991         1.04861992E-17
  -20.8799992         1.05061326E-17
  -20.7374992         1.05299273E-17
  -20.5949993         1.05465793E-17
  -20.4524994         1.05489442E-17
  -20.3099995         1.05380279E-17
  -20.1674995         1.05224446E-17
  -20.0249996         1.05133432E-17
  -19.8824997         1.05178513E-17
  -19.7399998         1.05349491E-17
  -19.5974998         1.05562482E-17
  -19.4549999         1.05711854E-17
  -19.3125000         1.05734916E-17
  -19.1700001         1.05650370E-17
  -19.0275002         1.05547146E-17
  -18.8850002         1.05530404E-17
  -18.7425003         1.05657087E-17
  -18.6000004         1.05899831E-17
  -18.4575005         1.06161179E-17
  -18.3150005         1.06329700E-17
  -18.1725006         1.06344623E-17
  -18.0300007         1.06230405E-17
  -17.8875008         1.06080859E-17
  -17.7450008         1.06002484E-17
  -17.6025009         1.06051304E-17
  -17.4599991         1.06200958E-17
  -17.3174992         1.06360877E-17
  -17.1749992         1.06433354E-17
  -17.0324993         1.06374715E-17
  -16.8899994         1.06223482E-17
  -16.7474995         1.06078709E-17
  -16.6049995         1.06041378E-17
  -16.4624996         1.06154297E-17
  -16.3199997         1.06376543E-17
  -16.1774998         1.06607964E-17
  -16.0349998         1.06748593E-17
  -15.8924999         1.06757477E-17
  -15.7500000         1.06675544E-17
  -15.6075001         1.06599096E-17
  -15.4650002         1.06620156E-17
  -15.3225002         1.06770166E-17
  -15.1800003         1.07000684E-17
  -15.0375004         1.07212807E-17
  -14.8950005         1.07317180E-17
  -14.7524996         1.07288088E-17
  -14.6099997         1.07178851E-17
  -14.4674997         1.07089333E-17
  -14.3249998         1.07105207E-17
  -14.1824999         1.07246018E-17
  -14.0400000         1.07453342E-17
  -13.8975000         1.07626413E-17
  -13.7550001         1.07683464E-17
  -13.6125002         1.07611640E-17
  -13.4700003         1.07475279E-17
  -13.3275003         1.07377366E-17
  -13.1850004         1.07397748E-17
  -13.0424995         1.07545226E-17
  -12.8999996         1.07752749E-17
  -12.7574997         1.07918449E-17
  -12.6149998         1.07967692E-17
  -12.4724998         1.07898465E-17
  -12.3299999         1.07782428E-17
  -12.1875000         1.07721051E-17
  -12.0450001         1.07783263E-17
  -11.9025002         1.07962695E-17
  -11.7600002         1.08180459E-17
  -11.6175003         1.08332263E-17
  -11.4750004         1.08351371E-17
  -11.3325005         1.08249586E-17
  -11.1899996         1.08111075E-17
  -11.0474997         1.08042626E-17
  -10.9049997         1.08110107E-17
  -10.7624998         1.08299308E-17
  -10.6199999         1.08524864E-17
  -10.4775000         1.08681871E-17
  -10.3350000         1.08709185E-17
  -10.1925001         1.08626127E-17
  -10.0500002         1.08520496E-17
  -9.90750027         1.08494879E-17
  -9.76500034         1.08603736E-17
  -9.62250042         1.08819332E-17
  -9.47999954         1.09047220E-17
  -9.33749962         1.09182315E-17
  -9.19499969         1.09172009E-17
  -9.05249977         1.09048238E-17
  -8.90999985         1.08909337E-17
  -8.76749992         1.08862081E-17
  -8.62500000         1.08958679E-17
  -8.48250008         1.09166384E-17
  -8.34000015         1.09387721E-17
  -8.19750023         1.09519176E-17
  -8.05500031         1.09513039E-17
  -7.91249990         1.09405216E-17
  -7.76999998         1.09292612E-17
  -7.62750006         1.09273669E-17
  -7.48500013         1.09388167E-17
  -7.34250021         1.09592473E-17
  -7.19999981         1.09785338E-17
  -7.05749989         1.09868635E-17
  -6.91499996         1.09806688E-17
  -6.77250004         1.09648440E-17
  -6.63000011         1.09499225E-17
  -6.48750019         1.09459057E-17
  -6.34499979         1.09564415E-17
  -6.20249987         1.09768158E-17
  -6.05999994         1.09969411E-17
  -5.91750002         1.10074984E-17
  -5.77500010         1.10055264E-17
  -5.63250017         1.09960957E-17
  -5.48999977         1.09891052E-17
  -5.34749985         1.09931435E-17
  -5.20499992         1.10101685E-17
  -5.06250000         1.10342163E-17
  -4.92000008         1.10549107E-17
  -4.77750015         1.10636615E-17
  -4.63500023         1.10587968E-17
  -4.49249983         1.10465380E-17
  -4.34999990         1.10372388E-17
  -4.20749998         1.10391777E-17
  -4.06500006         1.10536336E-17
  -3.92249990         1.10742221E-17
  -3.77999997         1.10908517E-17
  -3.63750005         1.10958950E-17
  -3.49499989         1.10888169E-17
  -3.35249996         1.10764728E-17
  -3.21000004         1.10689008E-17
  -3.06750011         1.10731889E-17
  -2.92499995         1.10891361E-17
  -2.78250003         1.11093549E-17
  -2.64000010         1.11237545E-17
  -2.49749994         1.11256884E-17
  -2.35500002         1.11160311E-17
  -2.21250010         1.11026978E-17
  -2.06999993         1.10958975E-17
  -1.92750001         1.11019748E-17
  -1.78499997         1.11195756E-17
  -1.64250004         1.11404586E-17
  -1.50000000         1.11544751E-17
  -1.35749996         1.11556994E-17
  -1.21500003         1.11460056E-17
  -1.07249999         1.11339106E-17
 -0.930000007         1.11293826E-17
 -0.787500024         1.11377578E-17
 -0.644999981         1.11564587E-17
 -0.502499998         1.11765079E-17
 -0.360000014         1.11879569E-17
 -0.217500001         1.11859469E-17
  -7.50000030E-02     1.11737269E-17
   6.75000027E-02     1.11607931E-17
  0.209999993         1.11572230E-17
  0.352499992         1.11676223E-17
  0.495000005         1.11883267E-17
  0.637499988         1.12095480E-17
  0.779999971         1.12212137E-17
  0.922500014         1.12189787E-17
   1.06500006         1.12067993E-17
   1.20749998         1.11945264E-17
   1.35000002         1.11919489E-17
   1.49249995         1.12028867E-17
   1.63499999         1.12228821E-17
   1.77750003         1.12418965E-17
   1.91999996         1.12503950E-17
   2.06250000         1.12451540E-17
   2.20499992         1.12312929E-17
   2.34750009         1.12192914E-17
   2.49000001         1.12187628E-17
   2.63249993         1.12327132E-17
   2.77500010         1.12557295E-17
   2.91750002         1.12771799E-17
   3.05999994         1.12874998E-17
   3.20250010         1.12838148E-17
   3.34500003         1.12715319E-17
   3.48749995         1.12609647E-17
   3.63000011         1.12610491E-17
   3.77250004         1.12739448E-17
   3.91499996         1.12937467E-17
   4.05749989         1.13100943E-17
   4.19999981         1.13144725E-17
   4.34250021         1.13054075E-17
   4.48500013         1.12894338E-17
   4.62750006         1.12772453E-17
   4.76999998         1.12773603E-17
   4.91249990         1.12910882E-17
   5.05499983         1.13118281E-17
   5.19750023         1.13290855E-17
   5.34000015         1.13347765E-17
   5.48250008         1.13280193E-17
   5.62500000         1.13155454E-17
   5.76749992         1.13075259E-17
   5.90999985         1.13113549E-17
   6.05249977         1.13271565E-17
   6.19500017         1.13477376E-17
   6.33750010         1.13629751E-17
   6.48000002         1.13659852E-17
   6.62249994         1.13573131E-17
   6.76499987         1.13446241E-17
   6.90749979         1.13380819E-17
   7.05000019         1.13442204E-17
   7.19250011         1.13620123E-17
   7.33500004         1.13835057E-17
   7.47749996         1.13986489E-17
   7.61999989         1.14013472E-17
   7.76249981         1.13931101E-17
   7.90500021         1.13820772E-17
   8.04749966         1.13780265E-17
   8.18999958         1.13864017E-17
   8.33250046         1.14049934E-17
   8.47500038         1.14252759E-17
   8.61750031         1.14375918E-17
   8.76000023         1.14370351E-17
   8.90250015         1.14264463E-17
   9.04500008         1.14146971E-17
   9.18750000         1.14112849E-17
   9.32999992         1.14205146E-17
   9.47249985         1.14388085E-17
   9.61499977         1.14567815E-17
   9.75749969         1.14648639E-17
   9.89999962         1.14590786E-17
   10.0424995         1.14434805E-17
   10.1850004         1.14277715E-17
   10.3275003         1.14215304E-17
   10.4700003         1.14285176E-17
   10.6125002         1.14445078E-17
   10.7550001         1.14599571E-17
   10.8975000         1.14659004E-17
   11.0400000         1.14594996E-17
   11.1824999         1.14458843E-17
   11.3249998         1.14351392E-17
   11.4674997         1.14362352E-17
   11.6099997         1.14515529E-17
   11.7524996         1.14753236E-17
   11.8950005         1.14969370E-17
   12.0375004         1.15071717E-17
   12.1800003         1.15036181E-17
   12.3225002         1.14920310E-17
   12.4650002         1.14828170E-17
   12.6075001         1.14847485E-17
   12.7500000         1.14996899E-17
   12.8924999         1.15214943E-17
   13.0349998         1.15397329E-17
   13.1774998         1.15459987E-17
   13.3199997         1.15390041E-17
   13.4624996         1.15253804E-17
   13.6049995         1.15157049E-17
   13.7475004         1.15181352E-17
   13.8900003         1.15334852E-17
   14.0325003         1.15546841E-17
   14.1750002         1.15709639E-17
   14.3175001         1.15742660E-17
   14.4600000         1.15640197E-17
   14.6025000         1.15474505E-17
   14.7449999         1.15352495E-17
   14.8874998         1.15352148E-17
   15.0299997         1.15476771E-17
   15.1724997         1.15654524E-17
   15.3149996         1.15783018E-17
   15.4575005         1.15791927E-17
   15.6000004         1.15685849E-17
   15.7425003         1.15541581E-17
   15.8850002         1.15461700E-17
   16.0275002         1.15512489E-17
   16.1700001         1.15683839E-17
   16.3125000         1.15894993E-17
   16.4549999         1.16042794E-17
   16.5974998         1.16063134E-17
   16.7399998         1.15968621E-17
   16.8824997         1.15839994E-17
   17.0249996         1.15776698E-17
   17.1674995         1.15836702E-17
   17.3099995         1.16001758E-17
   17.4524994         1.16189122E-17
   17.5949993         1.16302198E-17
   17.7374992         1.16289393E-17
   17.8799992         1.16175383E-17
   18.0224991         1.16046045E-17
   18.1650009         1.15996265E-17
   18.3075008         1.16072374E-17
   18.4500008         1.16244130E-17
   18.5925007         1.16423330E-17
   18.7350006         1.16517521E-17
   18.8775005         1.16486411E-17
   19.0200005         1.16366536E-17
   19.1625004         1.16249399E-17
   19.3050003         1.16226106E-17
   19.4475002         1.16332192E-17
   19.5900002         1.16525950E-17
   19.7325001         1.16713555E-17
   19.8750000         1.16805686E-17
   20.0174999         1.16771358E-17
   20.1599998         1.16656355E-17
   20.3024998         1.16555084E-17
   20.4449997         1.16552759E-17
   20.5874996         1.16673114E-17
   20.7299995         1.16863407E-17
   20.8724995         1.17025989E-17
   21.0149994         1.17077523E-17
   21.1574993         1.17000065E-17
   21.2999992         1.16852935E-17
   21.4424992         1.16738039E-17
   21.5849991         1.16739206E-17
   21.7275009         1.16872084E-17
   21.8700008         1.17074851E-17
   22.0125008         1.17245349E-17
   22.1550007         1.17302458E-17
   22.2975006         1.17234662E-17
   22.4400005         1.17106606E-17
   22.5825005         1.17019496E-17
   22.7250004         1.17049283E-17
   22.8675003         1.17199830E-17
   23.0100002         1.17399527E-17
   23.1525002         1.17543515E-17
   23.2950001         1.17556460E-17
   23.4375000         1.17438000E-17
   23.5799999         1.17263630E-17
   23.7224998         1.17140380E-17
   23.8649998         1.17143614E-17
   24.0074997         1.17272961E-17
   24.1499996         1.17453575E-17
   24.2924995         1.17581888E-17
   24.4349995         1.17588340E-17
   24.5774994         1.17479326E-17
   24.7199993         1.17333237E-17
   24.8624992         1.17253133E-17
   25.0049992         1.17304435E-17
   25.1474991         1.17475306E-17
   25.2900009         1.17683424E-17
   25.4325008         1.17825062E-17
   25.5750008         1.17836990E-17
   25.7175007         1.17734039E-17
   25.8600006         1.17599945E-17
   26.0025005         1.17536980E-17
   26.1450005         1.17604825E-17
   26.2875004         1.17785325E-17
   26.4300003         1.17993964E-17
   26.5725002         1.18131053E-17
   26.7150002         1.18141475E-17
   26.8575001         1.18047102E-17
   27.0000000         1.17932587E-17
   27.1424999         1.17893354E-17
   27.2849998         1.17977412E-17
   27.4274998         1.18156092E-17
   27.5699997         1.18341339E-17
   27.7124996         1.18438888E-17
   27.8549995         1.18405205E-17
   27.9974995         1.18273667E-17
   28.1399994         1.18134461E-17
   28.2824993         1.18080372E-17
   28.4249992         1.18151352E-17
   28.5674992         1.18311271E-17
   28.7099991         1.18470759E-17
   28.8525009         1.18542054E-17
   28.9950008         1.18492473E-17
   29.1375008         1.18364293E-17
   29.2800007         1.18248910E-17
   29.4225006         1.18231191E-17
   29.5650005         1.18337807E-17
   29.7075005         1.18520953E-17
   29.8500004         1.18687282E-17
   29.9925003         1.18754507E-17
   30.1350002         1.18701278E-17
   30.2775002         1.18580113E-17
   30.4200001         1.18485392E-17
   30.5625000         1.18495790E-17
   30.7049999         1.18626087E-17
   30.8474998         1.18817571E-17
   30.9899998         1.18972982E-17
   31.1324997         1.19014953E-17
   31.2749996         1.18932674E-17
   31.4174995         1.18788355E-17
   31.5599995         1.18679730E-17
   31.7024994         1.18680938E-17
   31.8449993         1.18797818E-17
   31.9874992         1.18964462E-17
   32.1300011         1.19083444E-17
   32.2724991         1.19085280E-17
   32.4150009         1.18971262E-17
   32.5574989         1.18813485E-17
   32.7000008         1.18711841E-17
   32.8424988         1.18733803E-17
   32.9850006         1.18873117E-17
   33.1274986         1.19052656E-17
   33.2700005         1.19169859E-17
   33.4124985         1.19157708E-17
   33.5550003         1.19024565E-17
   33.6974983         1.18849128E-17
   33.8400002         1.18733331E-17
   33.9824982         1.18741578E-17
   34.1250000         1.18862777E-17
   34.2675018         1.19018055E-17
   34.4099998         1.19109359E-17
   34.5525017         1.19079821E-17
   34.6949997         1.18949308E-17
   34.8375015         1.18803782E-17
   34.9799995         1.18744680E-17
   35.1225014         1.18828490E-17
   35.2649994         1.19032945E-17
   35.4075012         1.19269973E-17
   35.5499992         1.19437734E-17
   35.6925011         1.19480582E-17
   35.8349991         1.19421082E-17
   35.9775009         1.19345156E-17
   36.1199989         1.19349283E-17
   36.2625008         1.19481847E-17
   36.4049988         1.19713598E-17
   36.5475006         1.19954945E-17
   36.6899986         1.20109495E-17
   36.8325005         1.20131424E-17
   36.9749985         1.20052287E-17
   37.1175003         1.19961231E-17
   37.2599983         1.19950619E-17
   37.4025002         1.20060005E-17
   37.5449982         1.20252076E-17
   37.6875000         1.20434941E-17
   37.8300018         1.20517179E-17
   37.9724998         1.20462519E-17
   38.1150017         1.20311212E-17
   38.2574997         1.20155503E-17
   38.4000015         1.20084233E-17
   38.5424995         1.20130009E-17
   38.6850014         1.20250778E-17
   38.8274994         1.20356682E-17
   38.9700012         1.20365557E-17
   39.1124992         1.20253582E-17
   39.2550011         1.20070155E-17
   39.3974991         1.19908441E-17
   39.5400009         1.19849256E-17
   39.6824989         1.19912577E-17
   39.8250008         1.20045885E-17
   39.9674988         1.20156405E-17
   40.1100006         1.20167638E-17
   40.2524986         1.20065820E-17
   40.3950005         1.19908300E-17
   40.5374985         1.19788698E-17
   40.6800003         1.19779996E-17
   40.8224983         1.19890119E-17
   40.9650002         1.20056903E-17
   41.1074982         1.20185472E-17
   41.2500000         1.20205481E-17
   41.3925018         1.20113499E-17
   41.5349998         1.19974863E-17
   41.6775017         1.19883865E-17
   41.8199997         1.19906414E-17
   41.9625015         1.20039929E-17
   42.1049995         1.20214953E-17
   42.2475014         1.20337483E-17
   42.3899994         1.20346516E-17
   42.5325012         1.20251969E-17
   42.6749992         1.20129637E-17
   42.8175011         1.20076135E-17
   42.9599991         1.20150681E-17
   43.1025009         1.20338997E-17
   43.2449989         1.20561037E-17
   43.3875008         1.20718267E-17
   43.5299988         1.20751942E-17
   43.6725006         1.20677578E-17
   43.8149986         1.20574685E-17
   43.9575005         1.20537917E-17
   44.0999985         1.20619179E-17
   44.2425003         1.20795575E-17
   44.3849983         1.20982692E-17
   44.5275002         1.21085328E-17
   44.6699982         1.21055244E-17
   44.8125000         1.20921092E-17
   44.9550018         1.20772315E-17
   45.0974998         1.20706562E-17
   45.2400017         1.20771860E-17
   45.3824997         1.20938396E-17
   45.5250015         1.21116621E-17
   45.6674995         1.21210977E-17
   45.8100014         1.21176964E-17
   45.9524994         1.21047386E-17
   46.0950012         1.20912092E-17
   46.2374992         1.20863528E-17
   46.3800011         1.20940845E-17
   46.5224991         1.21106140E-17
   46.6650009         1.21267093E-17
   46.8074989         1.21332416E-17
   46.9500008         1.21266696E-17
   47.0924988         1.21111798E-17
   47.2350006         1.20962070E-17
   47.3774986         1.20908130E-17
   47.5200005         1.20983263E-17
   47.6624985         1.21144249E-17
   47.8050003         1.21298030E-17
   47.9474983         1.21358116E-17
   48.0900002         1.21296466E-17
   48.2324982         1.21160006E-17
   48.3750000         1.21041877E-17
   48.5175018         1.21025068E-17
   48.6599998         1.21132445E-17
   48.8025017         1.21313200E-17
   48.9449997         1.21473797E-17
   49.0875015         1.21534479E-17
   49.2299995         1.21477139E-17
   49.3725014         1.21355883E-17
   49.5149994         1.21263834E-17
   49.6575012         1.21276540E-17
   49.7999992         1.21406175E-17
   49.9425011         1.21594136E-17
   50.0849991         1.21746345E-17
   50.2275009         1.21789871E-17
   50.3699989         1.21716558E-17
   50.5125008         1.21587386E-17
   50.6549988         1.21495097E-17
   50.7975006         1.21507836E-17
   50.9399986         1.21628009E-17
   51.0825005         1.21791195E-17
   51.2249985         1.21905693E-17
   51.3675003         1.21908597E-17
   51.5099983         1.21804330E-17
   51.6525002         1.21662179E-17
   51.7949982         1.21574258E-17
   51.9375000         1.21599421E-17
   52.0800018         1.21727113E-17
   52.2224998         1.21883194E-17
   52.3650017         1.21974390E-17
   52.5074997         1.21944546E-17
   52.6500015         1.21808731E-17
   52.7924995         1.21644453E-17
   52.9350014         1.21545249E-17
   53.0774994         1.21564655E-17
   53.2200012         1.21684472E-17
   53.3624992         1.21826499E-17
   53.5050011         1.21900705E-17
   53.6474991         1.21860736E-17
   53.7900009         1.21732945E-17
   53.9324989         1.21601291E-17
   54.0750008         1.21556813E-17
   54.2174988         1.21642294E-17
   54.3600006         1.21825324E-17
   54.5024986         1.22016453E-17
   54.6450005         1.22121736E-17
   54.7874985         1.22098228E-17
   54.9300003         1.21979205E-17
   55.0724983         1.21853829E-17
   55.2150002         1.21813471E-17
   55.3574982         1.21896958E-17
   55.5000000         1.22067548E-17
   55.6425018         1.22235639E-17
   55.7849998         1.22313410E-17
   55.9275017         1.22268552E-17
   56.0699997         1.22144566E-17
   56.2125015         1.22035271E-17
   56.3549995         1.22028745E-17
   56.4975014         1.22154104E-17
   56.6399994         1.22363414E-17
   56.7825012         1.22559356E-17
   56.9249992         1.22652480E-17
   57.0675011         1.22613685E-17
   57.2099991         1.22490626E-17
   57.3525009         1.22378369E-17
   57.4949989         1.22362016E-17
   57.6375008         1.22465752E-17
   57.7799988         1.22638765E-17
   57.9225006         1.22786392E-17
   58.0649986         1.22827478E-17
   58.2075005         1.22743379E-17
   58.3499985         1.22589217E-17
   58.4925003         1.22460624E-17
   58.6349983         1.22436189E-17
   58.7775002         1.22530264E-17
   58.9199982         1.22684533E-17
   59.0625000         1.22803333E-17
   59.2050018         1.22811472E-17
   59.3474998         1.22699679E-17
   59.4900017         1.22530454E-17
   59.6324997         1.22401025E-17
   59.7750015         1.22385590E-17
   59.9174995         1.22491916E-17
   60.0600014         1.22657824E-17
   60.2024994         1.22789610E-17
   60.3450012         1.22818884E-17
   60.4874992         1.22743280E-17
   60.6300011         1.22626689E-17
   60.7724991         1.22559133E-17
   60.9150009         1.22600707E-17
   61.0574989         1.22743933E-17
   61.2000008         1.22917343E-17
   61.3424988         1.23028144E-17
   61.4850006         1.23018334E-17
   61.6274986         1.22900088E-17
   61.7700005         1.22749177E-17
   61.9124985         1.22660140E-17
   62.0550003         1.22690348E-17
   62.1974983         1.22826602E-17
   62.3400002         1.22994329E-17
   62.4824982         1.23103500E-17
   62.6250000         1.23103442E-17
   62.7675018         1.23013172E-17
   62.9099998         1.22908840E-17
   63.0525017         1.22876100E-17
   63.1949997         1.22956361E-17
   63.3375015         1.23119804E-17
   63.4799995         1.23281865E-17
   63.6225014         1.23353499E-17
   63.7649994         1.23294976E-17
   63.9075012         1.23140583E-17
   64.0500031         1.22979117E-17
   64.1924973         1.22901610E-17
   64.3349991         1.22947668E-17
   64.4775009         1.23082639E-17
   64.6200027         1.23219438E-17
   64.7624969         1.23271798E-17
   64.9049988         1.23206815E-17
   65.0475006         1.23065053E-17
   65.1900024         1.22935980E-17
   65.3324966         1.22903389E-17
   65.4749985         1.22994073E-17
   65.6175003         1.23160683E-17
   65.7600021         1.23309551E-17
   65.9024963         1.23356882E-17
   66.0449982         1.23279665E-17
   66.1875000         1.23130516E-17
   66.3300018         1.23007175E-17
   66.4725037         1.22994925E-17
   66.6149979         1.23116115E-17
   66.7574997         1.23317095E-17
   66.9000015         1.23500423E-17
   67.0425034         1.23582984E-17
   67.1849976         1.23545124E-17
   67.3274994         1.23441478E-17
   67.4700012         1.23366990E-17
   67.6125031         1.23398729E-17
   67.7549973         1.23548523E-17
   67.8974991         1.23755054E-17
   68.0400009         1.23920110E-17
   68.1825027         1.23967259E-17
   68.3249969         1.23887701E-17
   68.4674988         1.23745632E-17
   68.6100006         1.23639952E-17
   68.7525024         1.23645138E-17
   68.8949966         1.23766858E-17
   69.0374985         1.23938721E-17
   69.1800003         1.24062095E-17
   69.3225021         1.24064990E-17
   69.4649963         1.23944669E-17
   69.6074982         1.23768645E-17
   69.7500000         1.23633764E-17
   69.8925018         1.23608221E-17
   70.0350037         1.23691576E-17
   70.1774979         1.23816671E-17
   70.3199997         1.23892010E-17
   70.4625015         1.23858791E-17
   70.6050034         1.23727906E-17
   70.7474976         1.23574522E-17
   70.8899994         1.23493417E-17
   71.0325012         1.23542071E-17
   71.1750031         1.23705762E-17
   71.3174973         1.23905675E-17
   71.4599991         1.24045105E-17
   71.6025009         1.24065859E-17
   71.7450027         1.23981015E-17
   71.8874969         1.23864655E-17
   72.0299988         1.23805082E-17
   72.1725006         1.23850188E-17
   72.3150024         1.23978335E-17
   72.4574966         1.24112065E-17
   72.5999985         1.24166485E-17
   72.7425003         1.24102445E-17
   72.8850021         1.23952212E-17
   73.0274963         1.23801616E-17
   73.1699982         1.23739313E-17
   73.3125000         1.23803651E-17
   73.4550018         1.23959417E-17
   73.5975037         1.24118401E-17
   73.7399979         1.24191706E-17
   73.8824997         1.24142125E-17
   74.0250015         1.24005169E-17
   74.1675034         1.23866194E-17
   74.3099976         1.23807580E-17
   74.4524994         1.23858112E-17
   74.5950012         1.23975481E-17
   74.7375031         1.24072476E-17
   74.8799973         1.24071194E-17
   75.0224991         1.23952088E-17
   75.1650009         1.23768140E-17
   75.3075027         1.23614805E-17
   75.4499969         1.23573893E-17
   75.5924988         1.23664693E-17
   75.7350006         1.23832205E-17
   75.8775024         1.23979576E-17
   76.0199966         1.24025583E-17
   76.1624985         1.23952692E-17
   76.3050003         1.23816828E-17
   76.4475021         1.23713083E-17
   76.5899963         1.23717856E-17
   76.7324982         1.23842586E-17
   76.8750000         1.24026774E-17
   77.0175018         1.24174625E-17
   77.1600037         1.24213312E-17
   77.3024979         1.24137484E-17
   77.4449997         1.24013151E-17
   77.5875015         1.23938266E-17
   77.7300034         1.23983554E-17
   77.8724976         1.24149114E-17
   78.0149994         1.24363015E-17
   78.1575012         1.24522785E-17
   78.3000031         1.24555335E-17
   78.4424973         1.24459365E-17
   78.5849991         1.24305079E-17
   78.7275009         1.24191632E-17
   78.8700027         1.24187818E-17
   79.0124969         1.24291671E-17
   79.1549988         1.24433119E-17
   79.2975006         1.24517690E-17
   79.4400024         1.24484933E-17
   79.5824966         1.24345934E-17
   79.7249985         1.24177503E-17
   79.8675003         1.24076356E-17
   80.0100021         1.24100981E-17
   80.1524963         1.24236126E-17
   80.2949982         1.24401396E-17
   80.4375000         1.24498706E-17
   80.5800018         1.24470267E-17
   80.7225037         1.24332352E-17
   80.8649979         1.24164699E-17
   81.0074997         1.24062467E-17
   81.1500015         1.24079474E-17
   81.2925034         1.24197099E-17
   81.4349976         1.24337124E-17
   81.5774994         1.24410363E-17
   81.7200012         1.24371411E-17
   81.8625031         1.24246192E-17
   82.0049973         1.24115729E-17
   82.1474991         1.24066107E-17
   82.2900009         1.24135102E-17
   82.4325027         1.24287948E-17
   82.5749969         1.24437097E-17
   82.7174988         1.24494165E-17
   82.8600006         1.24422688E-17
   83.0025024         1.24260073E-17
   83.1449966         1.24095356E-17
   83.2874985         1.24016460E-17
   83.4300003         1.24058662E-17
   83.5725021         1.24185386E-17
   83.7149963         1.24312433E-17
   83.8574982         1.24360856E-17
   84.0000000         1.24306014E-17
   84.1425018         1.24192814E-17
   84.2850037         1.24107946E-17
   84.4274979         1.24125937E-17
   84.5699997         1.24261851E-17
   84.7125015         1.24459878E-17
   84.8550034         1.24624884E-17
   84.9974976         1.24678411E-17
   85.1399994         1.24605296E-17
   85.2825012         1.24462781E-17