  -30.0000000         4.89664411E-18
  -29.8575001         4.90199184E-18
  -29.7150002         4.91176994E-18
  -29.5725002         4.92439065E-18
  -29.4300003         4.93790388E-18
  -29.2875004         4.95037901E-18
  -29.1450005         4.96027292E-18
  -29.0025005         4.96671913E-18
  -28.8600006         4.96968127E-18
  -28.7175007         4.96993521E-18
  -28.5750008         4.96889007E-18
  -28.4325008         4.96827920E-18
  -28.2900009         4.96979376E-18
  -28.1474991         4.97472252E-18
  -28.0049992         4.98367096E-18
  -27.8624992         4.99642733E-18
  -27.7199993         5.01199114E-18
  -27.5774994         5.02876471E-18
  -27.4349995         5.04486702E-18
  -27.2924995         5.05850682E-18
  -27.1499996         5.06834365E-18
  -27.0074997         5.07375631E-18
  -26.8649998         5.07496812E-18
  -26.7224998         5.07300481E-18
  -26.5799999         5.06948971E-18
  -26.4375000         5.06632450E-18
  -26.2950001         5.06530872E-18
  -26.1525002         5.06778902E-18
  -26.0100002         5.07439489E-18
  -25.8675003         5.08492076E-18
  -25.7250004         5.09837403E-18
  -25.5825005         5.11318056E-18
  -25.4400005         5.12750485E-18
  -25.2975006         5.13962263E-18
  -25.1550007         5.14826749E-18
  -25.0125008         5.15288688E-18
  -24.8700008         5.15374963E-18
  -24.7275009         5.15188848E-18
  -24.5849991         5.14888871E-18
  -24.4424992         5.14655813E-18
  -24.2999992         5.14656143E-18
  -24.1574993         5.15007985E-18
  -24.0149994         5.15756873E-18
  -23.8724995         5.16866618E-18
  -23.7299995         5.18226917E-18
  -23.5874996         5.19675475E-18
  -23.4449997         5.21031224E-18
  -23.3024998         5.22130713E-18
  -23.1599998         5.22861279E-18
  -23.0174999         5.23183879E-18
  -22.8750000         5.23141238E-18
  -22.7325001         5.22849078E-18
  -22.5900002         5.22473207E-18
  -22.4475002         5.22195729E-18
  -22.3050003         5.22178483E-18
  -22.1625004         5.22529952E-18
  -22.0200005         5.23283265E-18
  -21.8775005         5.24389660E-18
  -21.7350006         5.25727956E-18
  -21.5925007         5.27129862E-18
  -21.4500008         5.28413687E-18
  -21.3075008         5.29421483E-18
  -21.1650009         5.30050885E-18
  -21.0224991         5.30275588E-18
  -20.8799992         5.30150436E-18
  -20.7374992         5.29800001E-18
  -20.5949993         5.29393235E-18
  -20.4524994         5.29108726E-18
  -20.3099995         5.29098882E-18
  -20.1674995         5.29458334E-18
  -20.0249996         5.30205071E-18
  -19.8824997         5.31276435E-18
  -19.7399998         5.32541980E-18
  -19.5974998         5.33830562E-18
  -19.4549999         5.34965537E-18
  -19.3125000         5.35801651E-18
  -19.1700001         5.36255566E-18
  -19.0275002         5.36323767E-18
  -18.8850002         5.36084009E-18
  -18.7425003         5.35680097E-18
  -18.6000004         5.35292728E-18
  -18.4575005         5.35103138E-18
  -18.3150005         5.35255546E-18
  -18.1725006         5.35827542E-18
  -18.0300007         5.36813334E-18
  -17.8875008         5.38123506E-18
  -17.7450008         5.39601512E-18
  -17.6025009         5.41053917E-18
  -17.4599991         5.42288070E-18
  -17.3174992         5.43149827E-18
  -17.1749992         5.43554484E-18
  -17.0324993         5.43503530E-18
  -16.8899994         5.43084811E-18
  -16.7474995         5.42455120E-18
  -16.6049995         5.41809298E-18
  -16.4624996         5.41341528E-18
  -16.3199997         5.41207069E-18
  -16.1774998         5.41491950E-18
  -16.0349998         5.42196791E-18
  -15.8924999         5.43237756E-18
  -15.7500000         5.44464300E-18
  -15.6075001         5.45690016E-18
  -15.4650002         5.46730568E-18
  -15.3225002         5.47440372E-18
  -15.1800003         5.47742086E-18
  -15.0375004         5.47641542E-18
  -14.8950005         5.47226215E-18
  -14.7524996         5.46647354E-18
  -14.6099997         5.46088634E-18
  -14.4674997         5.45728521E-18
  -14.3249998         5.45703458E-18
  -14.1824999         5.46079287E-18
  -14.0400000         5.46837605E-18
  -13.8975000         5.47878695E-18
  -13.7550001         5.49041587E-18
  -13.6125002         5.50136526E-18
  -13.4700003         5.50982855E-18
  -13.3275003         5.51445456E-18
  -13.1850004         5.51462207E-18
  -13.0424995         5.51056350E-18
  -12.8999996         5.50332567E-18
  -12.7574997         5.49456748E-18
  -12.6149998         5.48623860E-18
  -12.4724998         5.48020308E-18
  -12.3299999         5.47787705E-18
  -12.1875000         5.47996030E-18
  -12.0450001         5.48630891E-18
  -11.9025002         5.49597659E-18
  -11.7600002         5.50741898E-18
  -11.6175003         5.51881835E-18
  -11.4750004         5.52845914E-18
  -11.3325005         5.53508196E-18
  -11.1899996         5.53813633E-18
  -11.0474997         5.53788528E-18
  -10.9049997         5.53534335E-18
  -10.7624998         5.53205448E-18
  -10.6199999         5.52976443E-18
  -10.4775000         5.53005229E-18
  -10.3350000         5.53399050E-18
  -10.1925001         5.54190951E-18
  -10.0500002         5.55330434E-18
  -9.90750027         5.56691022E-18
  -9.76500034         5.58093341E-18
  -9.62250042         5.59338496E-18
  -9.47999954         5.60246741E-18
  -9.33749962         5.60692384E-18
  -9.19499969         5.60628526E-18
  -9.05249977         5.60096649E-18
  -8.90999985         5.59218762E-18
  -8.76749992         5.58173371E-18
  -8.62500000         5.57161067E-18
  -8.48250008         5.56365857E-18
  -8.34000015         5.55920627E-18
  -8.19750023         5.55883446E-18
  -8.05500031         5.56228793E-18
  -7.91249990         5.56855962E-18
  -7.76999998         5.57611509E-18
  -7.62750006         5.58322346E-18
  -7.48500013         5.58831641E-18
  -7.34250021         5.59031530E-18
  -7.19999981         5.58885449E-18
  -7.05749989         5.58435959E-18
  -6.91499996         5.57795887E-18
  -6.77250004         5.57125664E-18
  -6.63000011         5.56599825E-18
  -6.48750019         5.56370779E-18
  -6.34499979         5.56537042E-18
  -6.20249987         5.57122273E-18
  -6.05999994         5.58070097E-18
  -5.91750002         5.59255116E-18
  -5.77500010         5.60508171E-18
  -5.63250017         5.61650177E-18
  -5.48999977         5.62527526E-18
  -5.34749985         5.63042156E-18
  -5.20499992         5.63170286E-18
  -5.06250000         5.62966180E-18
  -4.92000008         5.62550066E-18
  -4.77750015         5.62083164E-18
  -4.63500023         5.61734508E-18
  -4.49249983         5.61645503E-18
  -4.34999990         5.61900895E-18
  -4.20749998         5.62510362E-18
  -4.06500006         5.63406364E-18
  -3.92249990         5.64457834E-18
  -3.77999997         5.65497559E-18
  -3.63750005         5.66357082E-18
  -3.49499989         5.66902484E-18
  -3.35249996         5.67062709E-18
  -3.21000004         5.66845202E-18
  -3.06750011         5.66335410E-18
  -2.92499995         5.65680325E-18
  -2.78250003         5.65059484E-18
  -2.64000010         5.64649409E-18
  -2.49749994         5.64588363E-18
  -2.35500002         5.64948311E-18
  -2.21250010         5.65719616E-18
  -2.06999993         5.66811784E-18
  -1.92750001         5.68070339E-18
  -1.78499997         5.69306478E-18
  -1.64250004         5.70334167E-18
  -1.50000000         5.71007037E-18
  -1.35749996         5.71247540E-18
  -1.21500003         5.71062417E-18
  -1.07249999         5.70541045E-18
 -0.930000007         5.69836742E-18
 -0.787500024         5.69136037E-18
 -0.644999981         5.68620621E-18
 -0.502499998         5.68431403E-18
 -0.360000014         5.68640969E-18
 -0.217500001         5.69239517E-18
  -7.50000030E-02     5.70137711E-18
   6.75000027E-02     5.71184715E-18
  0.209999993         5.72198590E-18
  0.352499992         5.73002569E-18
  0.495000005         5.73460620E-18
  0.637499988         5.73504998E-18
  0.779999971         5.73150510E-18
  0.922500014         5.72491702E-18
   1.06500006         5.71684415E-18
   1.20749998         5.70914227E-18
   1.35000002         5.70358899E-18
   1.49249995         5.70152642E-18
   1.63499999         5.70359354E-18
   1.77750003         5.70960301E-18
   1.91999996         5.71859281E-18
   2.06250000         5.72902769E-18
   2.20499992         5.73911433E-18
   2.34750009         5.74716363E-18
   2.49000001         5.75192447E-18
   2.63249993         5.75283437E-18
   2.77500010         5.75012452E-18
   2.91750002         5.74477349E-18
   3.05999994         5.73831238E-18
   3.20250010         5.73251550E-18
   3.34500003         5.72904134E-18
   3.48749995         5.72909470E-18
   3.63000011         5.73317849E-18
   3.77250004         5.74098914E-18
   3.91499996         5.75148358E-18
   4.05749989         5.76309182E-18
   4.19999981         5.77404658E-18
   4.34250021         5.78274522E-18
   4.48500013         5.78807846E-18
   4.62750006         5.78965011E-18
   4.76999998         5.78784975E-18
   4.91249990         5.78376596E-18
   5.05499983         5.77896045E-18
   5.19750023         5.77514798E-18
   5.34000015         5.77384517E-18
   5.48250008         5.77605622E-18
   5.62500000         5.78206072E-18
   5.76749992         5.79133880E-18
   5.90999985         5.80266248E-18
   6.05249977         5.81433111E-18
   6.19500017         5.82450708E-18
   6.33750010         5.83158858E-18
   6.48000002         5.83453954E-18
   6.62249994         5.83310645E-18
   6.76499987         5.82787619E-18
   6.90749979         5.82016645E-18
   7.05000019         5.81176643E-18
   7.19250011         5.80458899E-18
   7.33500004         5.80030461E-18
   7.47749996         5.80002047E-18
   7.61999989         5.80407986E-18
   7.76249981         5.81200756E-18
   7.90500021         5.82261119E-18
   8.04749966         5.83422108E-18
   8.18999958         5.84502240E-18
   8.33250046         5.85341374E-18
   8.47500038         5.85832264E-18
   8.61750031         5.85941328E-18
   8.76000023         5.85714846E-18
   8.90250015         5.85267879E-18
   9.04500008         5.84759121E-18
   9.18750000         5.84356905E-18
   9.32999992         5.84203421E-18
   9.47249985         5.84384657E-18
   9.61499977         5.84912398E-18
   9.75749969         5.85722621E-18
   9.89999962         5.86688520E-18
   10.0424995         5.87646519E-18
   10.1850004         5.88429570E-18
   10.3275003         5.88901063E-18
   10.4700003         5.88982499E-18
   10.6125002         5.88670279E-18
   10.7550001         5.88037238E-18
   10.8975000         5.87219653E-18
   11.0400000         5.86390818E-18
   11.1824999         5.85726716E-18
   11.3249998         5.85370656E-18
   11.4674997         5.85404529E-18
   11.6099997         5.85832305E-18
   11.7524996         5.86579953E-18
   11.8950005         5.87511813E-18
   12.0375004         5.88459472E-18
   12.1800003         5.89257164E-18
   12.3225002         5.89776096E-18
   12.4650002         5.89950548E-18
   12.6075001         5.89791109E-18
   12.7500000         5.89382068E-18
   12.8924999         5.88864419E-18
   13.0349998         5.88407153E-18
   13.1774998         5.88173309E-18
   13.3199997         5.88285889E-18
   13.4624996         5.88801884E-18
   13.6049995         5.89698382E-18
   13.7475004         5.90875088E-18
   13.8900003         5.92172438E-18
   14.0325003         5.93402786E-18
   14.1750002         5.94387793E-18
   14.3175001         5.94994654E-18
   14.4600000         5.95162985E-18
   14.6025000         5.94917189E-18
   14.7449999         5.94361365E-18
   14.8874998         5.93658303E-18
   15.0299997         5.92997178E-18
   15.1724997         5.92556498E-18
   15.3149996         5.92469603E-18
   15.4575005         5.92799193E-18
   15.6000004         5.93525830E-18
   15.7425003         5.94551534E-18
   15.8850002         5.95719306E-18
   16.0275002         5.96843899E-18
   16.1700001         5.97748421E-18
   16.3125000         5.98299861E-18
   16.4549999         5.98435974E-18
   16.5974998         5.98178348E-18
   16.7399998         5.97627487E-18
   16.8824997         5.96942210E-18
   17.0249996         5.96306645E-18
   17.1674995         5.95892393E-18
   17.3099995         5.95823779E-18
   17.4524994         5.96153327E-18
   17.5949993         5.96852047E-18
   17.7374992         5.97816291E-18
   17.8799992         5.98888855E-18
   18.0224991         5.99890778E-18
   18.1650009         6.00656209E-18
   18.3075008         6.01065705E-18
   18.4500008         6.01069510E-18
   18.5925007         6.00698313E-18
   18.7350006         6.00057330E-18
   18.8775005         5.99305630E-18
   19.0200005         5.98624405E-18
   19.1625004         5.98179837E-18
   19.3050003         5.98089509E-18
   19.4475002         5.98398378E-18
   19.5900002         5.99070421E-18
   19.7325001         5.99996946E-18
   19.8750000         6.01020334E-18
   20.0174999         6.01966339E-18
   20.1599998         6.02680196E-18
   20.3024998         6.03056977E-18
   20.4449997         6.03061981E-18
   20.5874996         6.02736982E-18
   20.7299995         6.02191415E-18
   20.8724995         6.01579839E-18
   21.0149994         6.01071578E-18
   21.1574993         6.00815855E-18
   21.2999992         6.00911312E-18
   21.4424992         6.01384997E-18
   21.5849991         6.02185832E-18
   21.7275009         6.03194372E-18
   21.8700008         6.04247290E-18
   22.0125008         6.05171085E-18
   22.1550007         6.05818064E-18
   22.2975006         6.06097155E-18
   22.4400005         6.05991979E-18
   22.5825005         6.05563748E-18
   22.7250004         6.04937903E-18
   22.8675003         6.04278681E-18
   23.0100002         6.03755903E-18
   23.1525002         6.03511513E-18
   23.2950001         6.03631495E-18
   23.4375000         6.04128962E-18
   23.5799999         6.04940550E-18
   23.7224998         6.05938791E-18
   23.8649998         6.06956306E-18
   24.0074997         6.07819386E-18
   24.1499996         6.08383276E-18
   24.2924995         6.08561988E-18
   24.4349995         6.08346631E-18
   24.5774994         6.07807765E-18
   24.7199993         6.07080549E-18
   24.8624992         6.06337244E-18
   25.0049992         6.05752097E-18
   25.1474991         6.05466140E-18
   25.2900009         6.05560149E-18
   25.4325008         6.06039583E-18
   25.5750008         6.06835248E-18
   25.7175007         6.07818063E-18
   25.8600006         6.08824990E-18
   26.0025005         6.09691586E-18
   26.1450005         6.10284509E-18
   26.2875004         6.10528031E-18
   26.4300003         6.10419960E-18
   26.5725002         6.10031971E-18
   26.7150002         6.09495958E-18
   26.8575001         6.08976488E-18
   27.0000000         6.08636393E-18
   27.1424999         6.08602396E-18
   27.2849998         6.08938272E-18
   27.4274998         6.09631160E-18
   27.5699997         6.10594743E-18
   27.7124996         6.11687159E-18
   27.8549995         6.12740532E-18
   27.9974995         6.13594803E-18
   28.1399994         6.14129244E-18
   28.2824993         6.14286285E-18
   28.4249992         6.14082054E-18
   28.5674992         6.13603406E-18
   28.7099991         6.12990713E-18
   28.8525009         6.12410239E-18
   28.9950008         6.12021009E-18
   29.1375008         6.11942344E-18
   29.2800007         6.12229128E-18
   29.4225006         6.12859315E-18
   29.5650005         6.13738153E-18
   29.7075005         6.14717411E-18
   29.8500004         6.15626565E-18
   29.9925003         6.16308328E-18
   30.1350002         6.16651359E-18
   30.2775002         6.16612854E-18
   30.4200001         6.16226602E-18
   30.5625000         6.15595546E-18
   30.7049999         6.14870398E-18
   30.8474998         6.14219324E-18
   30.9899998         6.13795022E-18
   31.1324997         6.13704322E-18
   31.2749996         6.13987217E-18
   31.4174995         6.14607851E-18
   31.5599995         6.15461295E-18
   31.7024994         6.16393486E-18
   31.8449993         6.17232330E-18
   31.9874992         6.17823102E-18
   32.1300011         6.18061165E-18
   32.2724991         6.17914795E-18
   32.4150009         6.17432673E-18
   32.5574989         6.16734243E-18
   32.7000008         6.15985562E-18
   32.8424988         6.15365466E-18
   32.9850006         6.15029754E-18
   33.1274986         6.15080337E-18
   33.2700005         6.15545708E-18
   33.4124985         6.16375867E-18
   33.5550003         6.17451698E-18
   33.6974983         6.18607517E-18
   33.8400002         6.19662173E-18
   33.9824982         6.20453081E-18
   34.1250000         6.20867747E-18
   34.2675018         6.20865596E-18
   34.4099998         6.20486334E-18
   34.5525017         6.19842291E-18
   34.6949997         6.19095678E-18
   34.8375015         6.18425620E-18
   34.9799995         6.17991640E-18
   35.1225014         6.17901436E-18
   35.2649994         6.18190494E-18
   35.4075012         6.18816711E-18
   35.5499992         6.19671561E-18
   35.6925011         6.20603752E-18
   35.8349991         6.21450661E-18
   35.9775009         6.22070923E-18
   36.1199989         6.22372182E-18
   36.2625008         6.22328548E-18
   36.4049988         6.21985806E-18
   36.5475006         6.21452109E-18
   36.6899986         6.20877301E-18
   36.8325005         6.20422558E-18
   36.9749985         6.20227675E-18
   37.1175003         6.20381530E-18
   37.2599983         6.20903192E-18
   37.4025002         6.21736948E-18
   37.5449982         6.22764307E-18
   37.6875000         6.23828723E-18
   37.8300018         6.24768772E-18
   37.9724998         6.25451899E-18
   38.1150017         6.25800763E-18
   38.2574997         6.25808207E-18
   38.4000015         6.25536851E-18
   38.5424995         6.25105435E-18
   38.6850014         6.24664051E-18
   38.8274994         6.24363660E-18
   38.9700012         6.24325610E-18
   39.1124992         6.24616654E-18
   39.2550011         6.25234020E-18
   39.3974991         6.26104338E-18
   39.5400009         6.27096665E-18
   39.6824989         6.28048337E-18
   39.8250008         6.28798300E-18
   39.9674988         6.29220948E-18
   40.1100006         6.29253497E-18
   40.2524986         6.28909432E-18
   40.3950005         6.28276308E-18
   40.5374985         6.27497517E-18
   40.6800003         6.26742756E-18
   40.8224983         6.26173449E-18
   40.9650002         6.25910819E-18
   41.1074982         6.26012935E-18
   41.2500000         6.26463376E-18
   41.3925018         6.27175247E-18
   41.5349998         6.28008053E-18
   41.6775017         6.28794867E-18
   41.8199997         6.29375093E-18
   41.9625015         6.29626969E-18
   42.1049995         6.29492883E-18
   42.2475014         6.28992977E-18
   42.3899994         6.28222375E-18
   42.5325012         6.27333404E-18
   42.6749992         6.26505066E-18
   42.8175011         6.25906725E-18
   42.9599991         6.25664443E-18
   43.1025009         6.25836580E-18
   43.2449989         6.26404315E-18
   43.3875008         6.27277446E-18
   43.5299988         6.28314647E-18
   43.6725006         6.29352263E-18
   43.8149986         6.30236271E-18
   43.9575005         6.30851486E-18
   44.0999985         6.31142488E-18
   44.2425003         6.31123091E-18
   44.3849983         6.30873034E-18
   44.5275002         6.30520945E-18
   44.6699982         6.30217783E-18
   44.8125000         6.30104501E-18
   44.9550018         6.30281476E-18
   45.0974998         6.30785725E-18
   45.2400017         6.31582176E-18
   45.3824997         6.32570037E-18
   45.5250015         6.33604261E-18
   45.6674995         6.34526029E-18
   45.8100014         6.35195508E-18
   45.9524994         6.35520011E-18
   46.0950012         6.35471579E-18
   46.2374992         6.35091531E-18
   46.3800011         6.34481196E-18
   46.5224991         6.33782270E-18
   46.6650009         6.33149642E-18
   46.8074989         6.32722403E-18
   46.9500008         6.32597127E-18
   47.0924988         6.32809133E-18
   47.2350006         6.33325004E-18
   47.3774986         6.34049077E-18
   47.5200005         6.34842922E-18
   47.6624985         6.35554587E-18
   47.8050003         6.36051474E-18
   47.9474983         6.36249295E-18
   48.0900002         6.36130387E-18
   48.2324982         6.35747568E-18
   48.3750000         6.35212672E-18
   48.5175018         6.34672523E-18
   48.6599998         6.34278950E-18
   48.8025017         6.34157562E-18
   48.9449997         6.34383217E-18
   49.0875015         6.34964725E-18
   49.2299995         6.35842074E-18
   49.3725014         6.36896233E-18
   49.5149994         6.37969913E-18
   49.6575012         6.38896149E-18
   49.7999992         6.39530141E-18
   49.9425011         6.39777923E-18
   50.0849991         6.39616127E-18
   50.2275009         6.39097981E-18
   50.3699989         6.38343302E-18
   50.5125008         6.37514716E-18
   50.6549988         6.36784894E-18
   50.7975006         6.36301779E-18
   50.9399986         6.36160373E-18
   51.0825005         6.36385986E-18
   51.2249985         6.36932091E-18
   51.3675003         6.37692270E-18
   51.5099983         6.38523131E-18
   51.6525002         6.39272805E-18
   51.7949982         6.39810803E-18
   51.9375000         6.40053250E-18
   52.0800018         6.39979424E-18
   52.2224998         6.39636806E-18
   52.3650017         6.39132102E-18
   52.5074997         6.38610440E-18
   52.6500015         6.38225677E-18
   52.7924995         6.38107763E-18
   52.9350014         6.38334576E-18
   53.0774994         6.38915132E-18
   53.2200012         6.39787642E-18
   53.3624992         6.40832909E-18
   53.5050011         6.41899807E-18
   53.6474991         6.42836589E-18
   53.7900009         6.43520667E-18
   53.9324989         6.43881318E-18
   54.0750008         6.43911427E-18
   54.2174988         6.43666127E-18
   54.3600006         6.43250717E-18
   54.5024986         6.42798828E-18
   54.6450005         6.42445332E-18
   54.7874985         6.42299170E-18
   54.9300003         6.42419897E-18
   55.0724983         6.42804246E-18
   55.2150002         6.43385713E-18
   55.3574982         6.44047623E-18
   55.5000000         6.44648942E-18
   55.6425018         6.45055666E-18
   55.7849998         6.45171347E-18
   55.9275017         6.44959424E-18
   56.0699997         6.44451948E-18
   56.2125015         6.43743096E-18
   56.3549995         6.42970220E-18
   56.4975014         6.42285935E-18
   56.6399994         6.41828835E-18
   56.7825012         6.41697313E-18
   56.9249992         6.41930909E-18
   57.0675011         6.42503276E-18
   57.2099991         6.43325866E-18
   57.3525009         6.44264013E-18
   57.4949989         6.45161752E-18
   57.6375008         6.45872548E-18
   57.7799988         6.46288703E-18
   57.9225006         6.46364638E-18
   58.0649986         6.46127237E-18
   58.2075005         6.45670592E-18
   58.3499985         6.45136151E-18
   58.4925003         6.44682153E-18
   58.6349983         6.44450005E-18
   58.7775002         6.44534997E-18
   58.9199982         6.44967654E-18
   59.0625000         6.45708684E-18
   59.2050018         6.46657708E-18
   59.3474998         6.47673362E-18
   59.4900017         6.48599928E-18
   59.6324997         6.49296621E-18
   59.7750015         6.49663807E-18
   59.9174995         6.49662938E-18
   60.0600014         6.49325076E-18
   60.2024994         6.48746505E-18
   60.3450012         6.48071029E-18
   60.4874992         6.47461273E-18
   60.6300011         6.47065467E-18
   60.7724991         6.46986099E-18
   60.9150009         6.47258696E-18
   61.0574989         6.47845085E-18
   61.2000008         6.48642900E-18
   61.3424988         6.49508876E-18
   61.4850006         6.50289238E-18
   61.6274986         6.50851597E-18
   61.7700005         6.51110876E-18
   61.9124985         6.51044909E-18
   62.0550003         6.50698403E-18
   62.1974983         6.50174012E-18
   62.3400002         6.49613349E-18
   62.4824982         6.49169484E-18
   62.6250000         6.48977164E-18
   62.7675018         6.49124113E-18
   62.9099998         6.49631505E-18
   63.0525017         6.50446775E-18
   63.1949997         6.51452378E-18
   63.3375015         6.52489083E-18
   63.4799995         6.53388808E-18
   63.6225014         6.54009648E-18
   63.7649994         6.54264958E-18
   63.9075012         6.54139971E-18
   64.0500031         6.53692507E-18
   64.1924973         6.53039365E-18
   64.3349991         6.52331588E-18
   64.4775009         6.51724479E-18
   64.6200027         6.51348029E-18
   64.7624969         6.51282227E-18
   64.9049988         6.51542293E-18
   65.0475006         6.52075121E-18
   65.1900024         6.52769374E-18
   65.3324966         6.53476820E-18
   65.4749985         6.54042735E-18
   65.6175003         6.54339280E-18
   65.7600021         6.54294116E-18
   65.9024963         6.53908153E-18
   66.0449982         6.53256666E-18
   66.1875000         6.52474111E-18
   66.3300018         6.51726175E-18
   66.4725037         6.51175066E-18
   66.6149979         6.50946764E-18
   66.7574997         6.51106699E-18
   66.9000015         6.51648627E-18
   67.0425034         6.52497066E-18
   67.1849976         6.53522397E-18
   67.3274994         6.54564935E-18
   67.4700012         6.55464204E-18
   67.6125031         6.56088601E-18
   67.7549973         6.56360206E-18
   67.8974991         6.56270664E-18
   68.0400009         6.55883502E-18
   68.1825027         6.55321970E-18
   68.3249969         6.54743730E-18
   68.4674988         6.54307392E-18
   68.6100006         6.54138812E-18
   68.7525024         6.54304414E-18
   68.8949966         6.54798572E-18
   69.0374985         6.55546922E-18
   69.1800003         6.56423982E-18
   69.3225021         6.57280610E-18
   69.4649963         6.57974490E-18
   69.6074982         6.58397304E-18
   69.7500000         6.58494952E-18
   69.8925018         6.58276949E-18
   70.0350037         6.57814472E-18
   70.1774979         6.57227670E-18
   70.3199997         6.56663326E-18
   70.4625015         6.56266528E-18
   70.6050034         6.56151426E-18
   70.7474976         6.56376501E-18
   70.8899994         6.56931374E-18
   71.0325012         6.57737917E-18
   71.1750031         6.58666386E-18
   71.3174973         6.59563339E-18
   71.4599991         6.60284434E-18
   71.6025009         6.60723791E-18
   71.7450027         6.60834385E-18
   71.8874969         6.60634827E-18
   72.0299988         6.60202956E-18
   72.1725006         6.59658754E-18
   72.3150024         6.59140153E-18
   72.4574966         6.58777021E-18
   72.5999985         6.58666923E-18
   72.7425003         6.58856306E-18
   72.8850021         6.59330984E-18
   73.0274963         6.60017420E-18
   73.1699982         6.60796086E-18
   73.3125000         6.61525577E-18
   73.4550018         6.62072384E-18
   73.5975037         6.62340267E-18
   73.7399979         6.62291546E-18
   73.8824997         6.61955504E-18
   74.0250015         6.61421269E-18
   74.1675034         6.60817593E-18
   74.3099976         6.60284806E-18
   74.4524994         6.59945662E-18
   74.5950012         6.59881390E-18
   74.7375031         6.60117550E-18
   74.8799973         6.60619938E-18
   75.0224991         6.61302652E-18
   75.1650009         6.62043681E-18
   75.3075027         6.62707866E-18
   75.4499969         6.63172824E-18
   75.5924988         6.63353646E-18
   75.7350006         6.63221835E-18
   75.8775024         6.62813910E-18
   76.0199966         6.62225951E-18
   76.1624985         6.61594770E-18
   76.3050003         6.61069304E-18
   76.4475021         6.60778798E-18
   76.5899963         6.60804978E-18
   76.7324982         6.61166249E-18
   76.8750000         6.61815462E-18
   77.0175018         6.62651494E-18
   77.1600037         6.63541581E-18
   77.3024979         6.64347669E-18
   77.4449997         6.64952669E-18
   77.5875015         6.65281432E-18
   77.7300034         6.65314353E-18
   77.8724976         6.65090891E-18
   78.0149994         6.64702943E-18
   78.1575012         6.64277648E-18
   78.3000031         6.63952855E-18
   78.4424973         6.63848052E-18
   78.5849991         6.64038469E-18
   78.7275009         6.64537093E-18
   78.8700027         6.65290737E-18
   79.0124969         6.66190999E-18
   79.1549988         6.67098210E-18
   79.2975006         6.67871541E-18
   79.4400024         6.68398331E-18
   79.5824966         6.68616500E-18
   79.7249985         6.68524765E-18
   79.8675003         6.68180452E-18
   80.0100021         6.67686707E-18
   80.1524963         6.67171870E-18
   80.2949982         6.66765394E-18
   80.4375000         6.66573157E-18
   80.5800018         6.66657198E-18
   80.7225037         6.67022275E-18
   80.8649979         6.67613212E-18
   81.0074997         6.68323967E-18
   81.1500015         6.69019171E-18
   81.2925034         6.69562381E-18
   81.4349976         6.69846186E-18
   81.5774994         6.69815870E-18
   81.7200012         6.69481069E-18
   81.8625031         6.68912755E-18
   82.0049973         6.68226319E-18
   82.1474991         6.67556137E-18
   82.2900009         6.67027858E-18
   82.4325027         6.66733795E-18
   82.5749969         6.66716673E-18
   82.7174988         6.66962759E-18
   82.8600006         6.67405466E-18
   83.0025024         6.67937798E-18
   83.1449966         6.68432535E-18
   83.2874985         6.68766798E-18
   83.4300003         6.68847366E-18
   83.5725021         6.68631637E-18
   83.7149963         6.68139134E-18
   83.8574982         6.67449679E-18
   84.0000000         6.66687970E-18
   84.1425018         6.65997356E-18
   84.2850037         6.65508906E-18
   84.4274979         6.65313733E-18
   84.5699997         6.65444841E-18
   84.7125015         6.65872411E-18
   84.8550034         6.66512111E-18
   84.9974976         6.67243545E-18
   85.1399994         6.67934283E-18
   85.2825012         6.68464547E-18