  -30.0000000         9.78447028E-19
  -29.8575001         9.80199823E-19
  -29.7150002         9.83398221E-19
  -29.5725002         9.87514375E-19
  -29.4300003         9.91906497E-19
  -29.2875004         9.95948929E-19
  -29.1450005         9.99149704E-19
  -29.0025005         1.00123999E-18
  -28.8600006         1.00221586E-18
  -28.7175007         1.00232742E-18
  -28.5750008         1.00202137E-18
  -28.4325008         1.00184714E-18
  -28.2900009         1.00234490E-18
  -28.1474991         1.00393422E-18
  -28.0049992         1.00682036E-18
  -27.8624992         1.01094602E-18
  -27.7199993         1.01599286E-18
  -27.5774994         1.02143902E-18
  -27.4349995         1.02666401E-18
  -27.2924995         1.03107629E-18
  -27.1499996         1.03423684E-18
  -27.0074997         1.03594942E-18
  -26.8649998         1.03630076E-18
  -26.7224998         1.03563695E-18
  -26.5799999         1.03449213E-18
  -26.4375000         1.03347894E-18
  -26.2950001         1.03316833E-18
  -26.1525002         1.03398280E-18
  -26.0100002         1.03611661E-18
  -25.8675003         1.03950288E-18
  -25.7250004         1.04382800E-18
  -25.5825005         1.04859029E-18
  -25.4400005         1.05320068E-18
  -25.2975006         1.05709826E-18
  -25.1550007         1.05986652E-18
  -25.0125008         1.06132153E-18
  -24.8700008         1.06155190E-18
  -24.7275009         1.06090194E-18
  -24.5849991         1.05989671E-18
  -24.4424992         1.05913053E-18
  -24.2999992         1.05914108E-18
  -24.1574993         1.06029758E-18
  -24.0149994         1.06272805E-18
  -23.8724995         1.06629826E-18
  -23.7299995         1.07064479E-18
  -23.5874996         1.07524991E-18
  -23.4449997         1.07954566E-18
  -23.3024998         1.08302489E-18
  -23.1599998         1.08534130E-18
  -23.0174999         1.08637662E-18
  -22.8750000         1.08626847E-18
  -22.7325001         1.08538752E-18
  -22.5900002         1.08426245E-18
  -22.4475002         1.08347239E-18
  -22.3050003         1.08352781E-18
  -22.1625004         1.08475804E-18
  -22.0200005         1.08724123E-18
  -21.8775005         1.09078643E-18
  -21.7350006         1.09497858E-18
  -21.5925007         1.09926772E-18
  -21.4500008         1.10308733E-18
  -21.3075008         1.10597212E-18
  -21.1650009         1.10765243E-18
  -21.0224991         1.10810562E-18
  -20.8799992         1.10756020E-18
  -20.7374992         1.10644909E-18
  -20.5949993         1.10532795E-18
  -20.4524994         1.10476568E-18
  -20.3099995         1.10523117E-18
  -20.1674995         1.10699731E-18
  -20.0249996         1.11007876E-18
  -19.8824997         1.11422252E-18
  -19.7399998         1.11895679E-18
  -19.5974998         1.12368433E-18
  -19.4549999         1.12781310E-18
  -19.3125000         1.13088018E-18
  -19.1700001         1.13265490E-18
  -19.0275002         1.13318688E-18
  -18.8850002         1.13279655E-18
  -18.7425003         1.13200680E-18
  -18.6000004         1.13143677E-18
  -18.4575005         1.13167748E-18
  -18.3150005         1.13317333E-18
  -18.1725006         1.13613485E-18
  -18.0300007         1.14049223E-18
  -17.8875008         1.14589909E-18
  -17.7450008         1.15178903E-18
  -17.6025009         1.15747673E-18
  -17.4599991         1.16228265E-18
  -17.3174992         1.16566447E-18
  -17.1749992         1.16732524E-18
  -17.0324993         1.16727571E-18
  -16.8899994         1.16583415E-18
  -16.7474995         1.16356385E-18
  -16.6049995         1.16115954E-18
  -16.4624996         1.15930862E-18
  -16.3199997         1.15855971E-18
  -16.1774998         1.15922104E-18
  -16.0349998         1.16131174E-18
  -15.8924999         1.16457207E-18
  -15.7500000         1.16852186E-18
  -15.6075001         1.17255985E-18
  -15.4650002         1.17608178E-18
  -15.3225002         1.17859413E-18
  -15.1800003         1.17980936E-18
  -15.0375004         1.17969976E-18
  -14.8950005         1.17850293E-18
  -14.7524996         1.17667032E-18
  -14.6099997         1.17477462E-18
  -14.4674997         1.17338434E-18
  -14.3249998         1.17293973E-18
  -14.1824999         1.17365628E-18
  -14.0400000         1.17547783E-18
  -13.8975000         1.17808872E-18
  -13.7550001         1.18098396E-18
  -13.6125002         1.18357862E-18
  -13.4700003         1.18533121E-18
  -13.3275003         1.18585636E-18
  -13.1850004         1.18500416E-18
  -13.0424995         1.18289361E-18
  -12.8999996         1.17989622E-18
  -12.7574997         1.17657302E-18
  -12.6149998         1.17357232E-18
  -12.4724998         1.17151471E-18
  -12.3299999         1.17087478E-18
  -12.1875000         1.17188807E-18
  -12.0450001         1.17450383E-18
  -11.9025002         1.17839426E-18
  -11.7600002         1.18301758E-18
  -11.6175003         1.18773044E-18
  -11.4750004         1.19191401E-18
  -11.3325005         1.19509762E-18
  -11.1899996         1.19704594E-18
  -11.0474997         1.19779185E-18
  -10.9049997         1.19761742E-18
  -10.7624998         1.19698277E-18
  -10.6199999         1.19642525E-18
  -10.4775000         1.19644872E-18
  -10.3350000         1.19742014E-18
  -10.1925001         1.19949512E-18
  -10.0500002         1.20258237E-18
  -9.90750027         1.20635690E-18
  -9.76500034         1.21031940E-18
  -9.62250042         1.21389137E-18
  -9.47999954         1.21653101E-18
  -9.33749962         1.21784644E-18
  -9.19499969         1.21767604E-18
  -9.05249977         1.21612414E-18
  -8.90999985         1.21353796E-18
  -8.76749992         1.21043273E-18
  -8.62500000         1.20738601E-18
  -8.48250008         1.20492050E-18
  -8.34000015         1.20340645E-18
  -8.19750023         1.20299834E-18
  -8.05500031         1.20361769E-18
  -7.91249990         1.20498378E-18
  -7.76999998         1.20667588E-18
  -7.62750006         1.20822529E-18
  -7.48500013         1.20921325E-18
  -7.34250021         1.20935946E-18
  -7.19999981         1.20858418E-18
  -7.05749989         1.20703260E-18
  -6.91499996         1.20505119E-18
  -6.77250004         1.20311962E-18
  -6.63000011         1.20174733E-18
  -6.48750019         1.20136321E-18
  -6.34499979         1.20221924E-18
  -6.20249987         1.20433361E-18
  -6.05999994         1.20748372E-18
  -5.91750002         1.21125618E-18
  -5.77500010         1.21513349E-18
  -5.63250017         1.21859989E-18
  -5.48999977         1.22124305E-18
  -5.34749985         1.22283258E-18
  -5.20499992         1.22335980E-18
  -5.06250000         1.22303544E-18
  -4.92000008         1.22224766E-18
  -4.77750015         1.22148282E-18
  -4.63500023         1.22122867E-18
  -4.49249983         1.22187067E-18
  -4.34999990         1.22360392E-18
  -4.20749998         1.22638263E-18
  -4.06500006         1.22991428E-18
  -3.92249990         1.23371083E-18
  -3.77999997         1.23718447E-18
  -3.63750005         1.23976869E-18
  -3.49499989         1.24103562E-18
  -3.35249996         1.24078715E-18
  -3.21000004         1.23909608E-18
  -3.06750011         1.23629422E-18
  -2.92499995         1.23290515E-18
  -2.78250003         1.22954959E-18
  -2.64000010         1.22682765E-18
  -2.49749994         1.22521527E-18
  -2.35500002         1.22498014E-18
  -2.21250010         1.22613706E-18
  -2.06999993         1.22844996E-18
  -1.92750001         1.23148054E-18
  -1.78499997         1.23467729E-18
  -1.64250004         1.23748929E-18
  -1.50000000         1.23948331E-18
  -1.35749996         1.24043477E-18
  -1.21500003         1.24037666E-18
  -1.07249999         1.23959043E-18
 -0.930000007         1.23854146E-18
 -0.787500024         1.23777394E-18
 -0.644999981         1.23778935E-18
 -0.502499998         1.23893727E-18
 -0.360000014         1.24133857E-18
 -0.217500001         1.24485843E-18
  -7.50000030E-02     1.24912730E-18
   6.75000027E-02     1.25361186E-18
  0.209999993         1.25771303E-18
  0.352499992         1.26087958E-18
  0.495000005         1.26271799E-18
  0.637499988         1.26307140E-18
  0.779999971         1.26205924E-18
  0.922500014         1.26006077E-18
   1.06500006         1.25764644E-18
   1.20749998         1.25546320E-18
   1.35000002         1.25410476E-18
   1.49249995         1.25398751E-18
   1.63499999         1.25526540E-18
   1.77750003         1.25779833E-18
   1.91999996         1.26118512E-18
   2.06250000         1.26484508E-18
   2.20499992         1.26813705E-18
   2.34750009         1.27048263E-18
   2.49000001         1.27147679E-18
   2.63249993         1.27096208E-18
   2.77500010         1.26906008E-18
   2.91750002         1.26615027E-18
   3.05999994         1.26280474E-18
   3.20250010         1.25968358E-18
   3.34500003         1.25741390E-18
   3.48749995         1.25646998E-18
   3.63000011         1.25708199E-18
   3.77250004         1.25919130E-18
   3.91499996         1.26246880E-18
   4.05749989         1.26638653E-18
   4.19999981         1.27032991E-18
   4.34250021         1.27372455E-18
   4.48500013         1.27614850E-18
   4.62750006         1.27740385E-18
   4.76999998         1.27753941E-18
   4.91249990         1.27682110E-18
   5.05499983         1.27566295E-18
   5.19750023         1.27453240E-18
   5.34000015         1.27385452E-18
   5.48250008         1.27392111E-18
   5.62500000         1.27483287E-18
   5.76749992         1.27647410E-18
   5.90999985         1.27853295E-18
   6.05249977         1.28056430E-18
   6.19500017         1.28208456E-18
   6.33750010         1.28268096E-18
   6.48000002         1.28211268E-18
   6.62249994         1.28037333E-18
   6.76499987         1.27770753E-18
   6.90749979         1.27456797E-18
   7.05000019         1.27152673E-18
   7.19250011         1.26916286E-18
   7.33500004         1.26794990E-18
   7.47749996         1.26816900E-18
   7.61999989         1.26985831E-18
   7.76249981         1.27281569E-18
   7.90500021         1.27663840E-18
   8.04749966         1.28080212E-18
   8.18999958         1.28475563E-18
   8.33250046         1.28802527E-18
   8.47500038         1.29030229E-18
   8.61750031         1.29150180E-18
   8.76000023         1.29177767E-18
   8.90250015         1.29148908E-18
   9.04500008         1.29111944E-18
   9.18750000         1.29116928E-18
   9.32999992         1.29204092E-18
   9.47249985         1.29394457E-18
   9.61499977         1.29684880E-18
   9.75749969         1.30048261E-18
   9.89999962         1.30438710E-18
   10.0424995         1.30801026E-18
   10.1850004         1.31081244E-18
   10.3275003         1.31236929E-18
   10.4700003         1.31245325E-18
   10.6125002         1.31107724E-18
   10.7550001         1.30849468E-18
   10.8975000         1.30515886E-18
   11.0400000         1.30164355E-18
   11.1824999         1.29853832E-18
   11.3249998         1.29633946E-18
   11.4674997         1.29535419E-18
   11.6099997         1.29564701E-18
   11.7524996         1.29703378E-18
   11.8950005         1.29912748E-18
   12.0375004         1.30143149E-18
   12.1800003         1.30344929E-18
   12.3225002         1.30479160E-18
   12.4650002         1.30525544E-18
   12.6075001         1.30485922E-18
   12.7500000         1.30383248E-18
   12.8924999         1.30256483E-18
   13.0349998         1.30152547E-18
   13.1774998         1.30116782E-18
   13.3199997         1.30183763E-18
   13.4624996         1.30369972E-18
   13.6049995         1.30669535E-18
   13.7475004         1.31054278E-18
   13.8900003         1.31478177E-18
   14.0325003         1.31886152E-18
   14.1750002         1.32224821E-18
   14.3175001         1.32453619E-18
   14.4600000         1.32553367E-18
   14.6025000         1.32529947E-18
   14.7449999         1.32412643E-18
   14.8874998         1.32247506E-18
   15.0299997         1.32087664E-18
   15.1724997         1.31982354E-18
   15.3149996         1.31967413E-18
   15.4575005         1.32059013E-18
   15.6000004         1.32250908E-18
   15.7425003         1.32516175E-18
   15.8850002         1.32812140E-18
   16.0275002         1.33088759E-18
   16.1700001         1.33298088E-18
   16.3125000         1.33404205E-18
   16.4549999         1.33391311E-18
   16.5974998         1.33267875E-18
   16.7399998         1.33066229E-18
   16.8824997         1.32836666E-18
   17.0249996         1.32637377E-18
   17.1674995         1.32522482E-18
   17.3099995         1.32530454E-18
   17.4524994         1.32676689E-18
   17.5949993         1.32950186E-18
   17.7374992         1.33315986E-18
   17.8799992         1.33722214E-18
   18.0224991         1.34109738E-18
   18.1650009         1.34422816E-18
   18.3075008         1.34618609E-18
   18.4500008         1.34674516E-18
   18.5925007         1.34591736E-18
   18.7350006         1.34394867E-18
   18.8775005         1.34127471E-18
   19.0200005         1.33843893E-18
   19.1625004         1.33598633E-18
   19.3050003         1.33435803E-18
   19.4475002         1.33380341E-18
   19.5900002         1.33433435E-18
   19.7325001         1.33573446E-18
   19.8750000         1.33761319E-18
   20.0174999         1.33950134E-18
   20.1599998         1.34095583E-18
   20.3024998         1.34165449E-18
   20.4449997         1.34145813E-18
   20.5874996         1.34043512E-18
   20.7299995         1.33884073E-18
   20.8724995         1.33706115E-18
   21.0149994         1.33553759E-18
   21.1574993         1.33467670E-18
   21.2999992         1.33476852E-18
   21.4424992         1.33592585E-18
   21.5849991         1.33805791E-18
   21.7275009         1.34088376E-18
   21.8700008         1.34399107E-18
   22.0125008         1.34692373E-18
   22.1550007         1.34928523E-18
   22.2975006         1.35082668E-18
   22.4400005         1.35150228E-18
   22.5825005         1.35147788E-18
   22.7250004         1.35109282E-18
   22.8675003         1.35078129E-18
   23.0100002         1.35097847E-18
   23.1525002         1.35202526E-18
   23.2950001         1.35409652E-18
   23.4375000         1.35715916E-18
   23.5799999         1.36097029E-18
   23.7224998         1.36511447E-18
   23.8649998         1.36907211E-18
   24.0074997         1.37231776E-18
   24.1499996         1.37441580E-18
   24.2924995         1.37511446E-18
   24.4349995         1.37440019E-18
   24.5774994         1.37250626E-18
   24.7199993         1.36987148E-18
   24.8624992         1.36704810E-18
   25.0049992         1.36458931E-18
   25.1474991         1.36293722E-18
   25.2900009         1.36233928E-18
   25.4325008         1.36280818E-18
   25.5750008         1.36413395E-18
   25.7175007         1.36593782E-18
   25.8600006         1.36775700E-18
   26.0025005         1.36914170E-18
   26.1450005         1.36974513E-18
   26.2875004         1.36939585E-18
   26.4300003         1.36813833E-18
   26.5725002         1.36623271E-18
   26.7150002         1.36411420E-18
   26.8575001         1.36231094E-18
   27.0000000         1.36134087E-18
   27.1424999         1.36159864E-18
   27.2849998         1.36326799E-18
   27.4274998         1.36627521E-18
   27.5699997         1.37029758E-18
   27.7124996         1.37482888E-18
   27.8549995         1.37928045E-18
   27.9974995         1.38309934E-18
   28.1399994         1.38587246E-18
   28.2824993         1.38739489E-18
   28.4249992         1.38769660E-18
   28.5674992         1.38702255E-18
   28.7099991         1.38577403E-18
   28.8525009         1.38442541E-18
   28.9950008         1.38343042E-18
   29.1375008         1.38312963E-18
   29.2800007         1.38368167E-18
   29.4225006         1.38502636E-18
   29.5650005         1.38689103E-18
   29.7075005         1.38884835E-18
   29.8500004         1.39040644E-18
   29.9925003         1.39112247E-18
   30.1350002         1.39070857E-18
   30.2775002         1.38910643E-18
   30.4200001         1.38650991E-18
   30.5625000         1.38333488E-18
   30.7049999         1.38013793E-18
   30.8474998         1.37750894E-18
   30.9899998         1.37595746E-18
   31.1324997         1.37581984E-18
   31.2749996         1.37719472E-18
   31.4174995         1.37992514E-18
   31.5599995         1.38362480E-18
   31.7024994         1.38774458E-18
   31.8449993         1.39166924E-18
   31.9874992         1.39483031E-18
   32.1300011         1.39681379E-18
   32.2724991         1.39744172E-18
   32.4150009         1.39680944E-18
   32.5574989         1.39526830E-18
   32.7000008         1.39335338E-18
   32.8424988         1.39167586E-18
   32.9850006         1.39080070E-18
   33.1274986         1.39113653E-18
   33.2700005         1.39285976E-18
   33.4124985         1.39588765E-18
   33.5550003         1.39989917E-18
   33.6974983         1.40439986E-18
   33.8400002         1.40881008E-18
   33.9824982         1.41256982E-18
   34.1250000         1.41523561E-18
   34.2675018         1.41655455E-18
   34.4099998         1.41650947E-18
   34.5525017         1.41531440E-18
   34.6949997         1.41336836E-18
   34.8375015         1.41117209E-18
   34.9799995         1.40921912E-18
   35.1225014         1.40789542E-18
   35.2649994         1.40739994E-18
   35.4075012         1.40771365E-18
   35.5499992         1.40861620E-18
   35.6925011         1.40974665E-18
   35.8349991         1.41069150E-18
   35.9775009         1.41108007E-18
   36.1199989         1.41066265E-18
   36.2625008         1.40936728E-18
   36.4049988         1.40731567E-18
   36.5475006         1.40481035E-18
   36.6899986         1.40228641E-18
   36.8325005         1.40023718E-18
   36.9749985         1.39912813E-18
   37.1175003         1.39930670E-18
   37.2599983         1.40092818E-18
   37.4025002         1.40391927E-18
   37.5449982         1.40798362E-18
   37.6875000         1.41265647E-18
   37.8300018         1.41739280E-18
   37.9724998         1.42167604E-18
   38.1150017         1.42511298E-18
   38.2574997         1.42749970E-18
   38.4000015         1.42884201E-18
   38.5424995         1.42933139E-18
   38.6850014         1.42929148E-18
   38.8274994         1.42909782E-18
   38.9700012         1.42910030E-18
   39.1124992         1.42955215E-18
   39.2550011         1.43056327E-18
   39.3974991         1.43207836E-18
   39.5400009         1.43388688E-18
   39.6824989         1.43566439E-18
   39.8250008         1.43704216E-18
   39.9674988         1.43769315E-18
   40.1100006         1.43741408E-18
   40.2524986         1.43618613E-18
   40.3950005         1.43419273E-18
   40.5374985         1.43179463E-18
   40.6800003         1.42945847E-18
   40.8224983         1.42766111E-18
   40.9650002         1.42679257E-18
   41.1074982         1.42707877E-18
   41.2500000         1.42853751E-18
   41.3925018         1.43098131E-18
   41.5349998         1.43405439E-18
   41.6775017         1.43730004E-18
   41.8199997         1.44024315E-18
   41.9625015         1.44247219E-18
   42.1049995         1.44371017E-18
   42.2475014         1.44386444E-18
   42.3899994         1.44303829E-18
   42.5325012         1.44150915E-18
   42.6749992         1.43966681E-18
   42.8175011         1.43792683E-18
   42.9599991         1.43664036E-18
   43.1025009         1.43601470E-18
   43.2449989         1.43607384E-18
   43.3875008         1.43666083E-18
   43.5299988         1.43748512E-18
   43.6725006         1.43819649E-18
   43.8149986         1.43847401E-18
   43.9575005         1.43810188E-18
   44.0999985         1.43701993E-18
   44.2425003         1.43534489E-18
   44.3849983         1.43335066E-18
   44.5275002         1.43142292E-18
   44.6699982         1.42998714E-18
   44.8125000         1.42942776E-18
   44.9550018         1.43000916E-18
   45.0974998         1.43181324E-18
   45.2400017         1.43471106E-18
   45.3824997         1.43837775E-18
   45.5250015         1.44235091E-18
   45.6674995         1.44612099E-18
   45.8100014         1.44923346E-18
   45.9524994         1.45137896E-18
   46.0950012         1.45245068E-18
   46.2374992         1.45255656E-18
   46.3800011         1.45198435E-18
   46.5224991         1.45113846E-18
   46.6650009         1.45045355E-18
   46.8074989         1.45031210E-18
   46.9500008         1.45097602E-18
   47.0924988         1.45253929E-18
   47.2350006         1.45491206E-18
   47.3774986         1.45783614E-18
   47.5200005         1.46093176E-18
   47.6624985         1.46377075E-18
   47.8050003         1.46596536E-18
   47.9474983         1.46725142E-18
   48.0900002         1.46754848E-18
   48.2324982         1.46697948E-18
   48.3750000         1.46584418E-18
   48.5175018         1.46454551E-18
   48.6599998         1.46349974E-18
   48.8025017         1.46304128E-18
   48.9449997         1.46335168E-18
   49.0875015         1.46442649E-18
   49.2299995         1.46608220E-18
   49.3725014         1.46799723E-18
   49.5149994         1.46977587E-18
   49.6575012         1.47102378E-18
   49.7999992         1.47141710E-18
   49.9425011         1.47076880E-18
   50.0849991         1.46906843E-18
   50.2275009         1.46649858E-18
   50.3699989         1.46341196E-18
   50.5125008         1.46027498E-18
   50.6549988         1.45758230E-18
   50.7975006         1.45575806E-18
   50.9399986         1.45506777E-18
   51.0825005         1.45556594E-18
   51.2249985         1.45708599E-18
   51.3675003         1.45928112E-18
   51.5099983         1.46170062E-18
   51.6525002         1.46388531E-18
   51.7949982         1.46545396E-18
   51.9375000         1.46617340E-18
   52.0800018         1.46599317E-18
   52.2224998         1.46504884E-18
   52.3650017         1.46363509E-18
   52.5074997         1.46215164E-18
   52.6500015         1.46103019E-18
   52.7924995         1.46065321E-18
   52.9350014         1.46127473E-18
   53.0774994         1.46296383E-18
   53.2200012         1.46558165E-18
   53.3624992         1.46880362E-18
   53.5050011         1.47218173E-18
   53.6474991         1.47523909E-18
   53.7900009         1.47756719E-18
   53.9324989         1.47890846E-18
   54.0750008         1.47920563E-18
   54.2174988         1.47860437E-18
   54.3600006         1.47742005E-18
   54.5024986         1.47607206E-18
   54.6450005         1.47500448E-18
   54.7874985         1.47460433E-18
   54.9300003         1.47513104E-18
   55.0724983         1.47666525E-18
   55.2150002         1.47908734E-18
   55.3574982         1.48209466E-18
   55.5000000         1.48525345E-18
   55.6425018         1.48808272E-18
   55.7849998         1.49015295E-18
   55.9275017         1.49117793E-18
   56.0699997         1.49107526E-18
   56.2125015         1.48998245E-18
   56.3549995         1.48822396E-18
   56.4975014         1.48623966E-18
   56.6399994         1.48448883E-18
   56.7825012         1.48335952E-18
   56.9249992         1.48309875E-18
   57.0675011         1.48377053E-18
   57.2099991         1.48525097E-18
   57.3525009         1.48725203E-18
   57.4949989         1.48937519E-18
   57.6375008         1.49118713E-18
   57.7799988         1.49230300E-18
   57.9225006         1.49247174E-18
   58.0649986         1.49163681E-18
   58.2075005         1.48996228E-18
   58.3499985         1.48780955E-18
   58.4925003         1.48566663E-18
   58.6349983         1.48404505E-18
   58.7775002         1.48336790E-18
   58.9199982         1.48387982E-18
   59.0625000         1.48559622E-18
   59.2050018         1.48830937E-18
   59.3474998         1.49163588E-18
   59.4900017         1.49509597E-18
   59.6324997         1.49820617E-18
   59.7750015         1.50056384E-18
   59.9174995         1.50191711E-18
   60.0600014         1.50220414E-18
   60.2024994         1.50156639E-18
   60.3450012         1.50032562E-18
   60.4874992         1.49892685E-18
   60.6300011         1.49785276E-18
   60.7724991         1.49752158E-18
   60.9150009         1.49819180E-18
   61.0574989         1.49989734E-18
   61.2000008         1.50243441E-18
   61.3424988         1.50540068E-18
   61.4850006         1.50828423E-18
   61.6274986         1.51057562E-18
   61.7700005         1.51187564E-18
   61.9124985         1.51197284E-18
   62.0550003         1.51087972E-18
   62.1974983         1.50882283E-18
   62.3400002         1.50619426E-18
   62.4824982         1.50348224E-18
   62.6250000         1.50118299E-18
   62.7675018         1.49971909E-18
   62.9099998         1.49936133E-18
   63.0525017         1.50017796E-18
   63.1949997         1.50201782E-18
   63.3375015         1.50453224E-18
   63.4799995         1.50724395E-18
   63.6225014         1.50964443E-18
   63.7649994         1.51130179E-18
   63.9075012         1.51195267E-18
   64.0500031         1.51155397E-18
   64.1924973         1.51028652E-18
   64.3349991         1.50850561E-18
   64.4775009         1.50666596E-18
   64.6200027         1.50522811E-18
   64.7624969         1.50457422E-18
   64.9049988         1.50494490E-18
   65.0475006         1.50640105E-18
   65.1900024         1.50881952E-18
   65.3324966         1.51191411E-18
   65.4749985         1.51528652E-18
   65.6175003         1.51849702E-18
   65.7600021         1.52114865E-18
   65.9024963         1.52296348E-18
   66.0449982         1.52383936E-18
   66.1875000         1.52386345E-18
   66.3300018         1.52328660E-18
   66.4725037         1.52245497E-18
   66.6149979         1.52172250E-18
   66.7574997         1.52137250E-18
   66.9000015         1.52155707E-18
   67.0425034         1.52227465E-18
   67.1849976         1.52338152E-18
   67.3274994         1.52462942E-18
   67.4700012         1.52572037E-18
   67.6125031         1.52636288E-18
   67.7549973         1.52632845E-18
   67.8974991         1.52550096E-18
   68.0400009         1.52391226E-18
   68.1825027         1.52175042E-18
   68.3249969         1.51934074E-18
   68.4674988         1.51709050E-18
   68.6100006         1.51540915E-18
   68.7525024         1.51461899E-18
   68.8949966         1.51488327E-18
   69.0374985         1.51616540E-18
   69.1800003         1.51824245E-18
   69.3225021         1.52075294E-18
   69.4649963         1.52327698E-18
   69.6074982         1.52542021E-18
   69.7500000         1.52688163E-18
   69.8925018         1.52749922E-18
   70.0350037         1.52726865E-18
   70.1774979         1.52633610E-18
   70.3199997         1.52497270E-18
   70.4625015         1.52353227E-18
   70.6050034         1.52238725E-18
   70.7474976         1.52186499E-18
   70.8899994         1.52217249E-18
   71.0325012         1.52334998E-18
   71.1750031         1.52525084E-18
   71.3174973         1.52756902E-18
   71.4599991         1.52990508E-18
   71.6025009         1.53185981E-18
   71.7450027         1.53312219E-18
   71.8874969         1.53353712E-18
   72.0299988         1.53312850E-18
   72.1725006         1.53208563E-18
   72.3150024         1.53071344E-18
   72.4574966         1.52936782E-18
   72.5999985         1.52839123E-18
   72.7425003         1.52805654E-18
   72.8850021         1.52852358E-18
   73.0274963         1.52981119E-18
   73.1699982         1.53179539E-18
   73.3125000         1.53422410E-18
   73.4550018         1.53676799E-18
   73.5975037         1.53908389E-18
   73.7399979         1.54089469E-18
   73.8824997         1.54205409E-18
   74.0250015         1.54258224E-18
   74.1675034         1.54265669E-18
   74.3099976         1.54256384E-18
   74.4524994         1.54261853E-18
   74.5950012         1.54308434E-18
   74.7375031         1.54410849E-18
   74.8799973         1.54568696E-18
   75.0224991         1.54766754E-18
   75.1650009         1.54977902E-18
   75.3075027         1.55168216E-18
   75.4499969         1.55303181E-18
   75.5924988         1.55353959E-18
   75.7350006         1.55303594E-18
   75.8775024         1.55151321E-18
   76.0199966         1.54914675E-18
   76.1624985         1.54627984E-18
   76.3050003         1.54336827E-18
   76.4475021         1.54089479E-18
   76.5899963         1.53926742E-18
   76.7324982         1.53873254E-18
   76.8750000         1.53932181E-18
   77.0175018         1.54085095E-18
   77.1600037         1.54296450E-18
   77.3024979         1.54521526E-18
   77.4449997         1.54715810E-18
   77.5875015         1.54843341E-18
   77.7300034         1.54883045E-18
   77.8724976         1.54832070E-18
   78.0149994         1.54706391E-18
   78.1575012         1.54538307E-18
   78.3000031         1.54371279E-18
   78.4424973         1.54252496E-18
   78.5849991         1.54223793E-18
   78.7275009         1.54312580E-18
   78.8700027         1.54525403E-18
   79.0124969         1.54845388E-18
   79.1549988         1.55235238E-18
   79.2975006         1.55645230E-18
   79.4400024         1.56023965E-18
   79.5824966         1.56329257E-18
   79.7249985         1.56536166E-18
   79.8675003         1.56640628E-18
   80.0100021         1.56658113E-18
   80.1524963         1.56618677E-18
   80.2949982         1.56559461E-18
   80.4375000         1.56517130E-18
   80.5800018         1.56520666E-18
   80.7225037         1.56585642E-18
   80.8649979         1.56710525E-18
   81.0074997         1.56875806E-18
   81.1500015         1.57046474E-18
   81.2925034         1.57178223E-18
   81.4349976         1.57226624E-18
   81.5774994         1.57157554E-18
   81.7200012         1.56956260E-18
   81.8625031         1.56632212E-18
   82.0049973         1.56218570E-18
   82.1474991         1.55765978E-18
   82.2900009         1.55332701E-18
   82.4325027         1.54972929E-18
   82.5749969         1.54727194E-18
   82.7174988         1.54616176E-18
   82.8600006         1.54638314E-18
   83.0025024         1.54771769E-18
   83.1449966         1.54979060E-18
   83.2874985         1.55214021E-18
   83.4300003         1.55429915E-18
   83.5725021         1.55587483E-18
   83.7149963         1.55662725E-18
   83.8574982         1.55651403E-18
   84.0000000         1.55570184E-18
   84.1425018         1.55453169E-18
   84.2850037         1.55343826E-18
   84.4274979         1.55284807E-18
   84.5699997         1.55307689E-18
   84.7125015         1.55425614E-18
   84.8550034         1.55630651E-18
   84.9974976         1.55895918E-18
   85.1399994         1.56181760E-18
   85.2825012         1.56444101E-18