  -30.00000        9.8404830E-18
  -29.85750        9.8575444E-18
  -29.71500        9.8833773E-18
  -29.57250        9.9064540E-18
  -29.43000        9.9186673E-18
  -29.28750        9.9198593E-18
  -29.14500        9.9175299E-18
  -29.00250        9.9219380E-18
  -28.86000        9.9395933E-18
  -28.71750        9.9690583E-18
  -28.57500        1.0001610E-17
  -28.43250        1.0026345E-17
  -28.29000        1.0036668E-17
  -28.14750        1.0034238E-17
  -28.00500        1.0027999E-17
  -27.86250        1.0028878E-17
  -27.72000        1.0043319E-17
  -27.57750        1.0069542E-17
  -27.43500        1.0098720E-17
  -27.29250        1.0120369E-17
  -27.15000        1.0128662E-17
  -27.00750        1.0125884E-17
  -26.86500        1.0120963E-17
  -26.72250        1.0124005E-17
  -26.58000        1.0140147E-17
  -26.43750        1.0166456E-17
  -26.29500        1.0193726E-17
  -26.15250        1.0212079E-17
  -26.01000        1.0216954E-17
  -25.86750        1.0211876E-17
  -25.72500        1.0206311E-17
  -25.58250        1.0209948E-17
  -25.44000        1.0226830E-17
  -25.29750        1.0252930E-17
  -25.15500        1.0278592E-17
  -25.01250        1.0294379E-17
  -24.87000        1.0296766E-17
  -24.72750        1.0290252E-17
  -24.58500        1.0284600E-17
  -24.44250        1.0288914E-17
  -24.30000        1.0306134E-17
  -24.15750        1.0331284E-17
  -24.01500        1.0354554E-17
  -23.87250        1.0367304E-17
  -23.73000        1.0367374E-17
  -23.58750        1.0360439E-17
  -23.44500        1.0356578E-17
  -23.30250        1.0364138E-17
  -23.16000        1.0384595E-17
  -23.01750        1.0411554E-17
  -22.87500        1.0434517E-17
  -22.73250        1.0445156E-17
  -22.59000        1.0442316E-17
  -22.44750        1.0432706E-17
  -22.30500        1.0426875E-17
  -22.16250        1.0432849E-17
  -22.02000        1.0451319E-17
  -21.87750        1.0475250E-17
  -21.73500        1.0494178E-17
  -21.59250        1.0500592E-17
  -21.45000        1.0494533E-17
  -21.30750        1.0483625E-17
  -21.16500        1.0478479E-17
  -21.02250        1.0486239E-17
  -20.88000        1.0506172E-17
  -20.73750        1.0529965E-17
  -20.59500        1.0546614E-17
  -20.45250        1.0548978E-17
  -20.31000        1.0538062E-17
  -20.16750        1.0522479E-17
  -20.02500        1.0513380E-17
  -19.88250        1.0517889E-17
  -19.74000        1.0534987E-17
  -19.59750        1.0556285E-17
  -19.45500        1.0571222E-17
  -19.31250        1.0573530E-17
  -19.17000        1.0565079E-17
  -19.02750        1.0554763E-17
  -18.88500        1.0553096E-17
  -18.74250        1.0565771E-17
  -18.60000        1.0590052E-17
  -18.45750        1.0616192E-17
  -18.31500        1.0633054E-17
  -18.17250        1.0634557E-17
  -18.03000        1.0623149E-17
  -17.88750        1.0608209E-17
  -17.74500        1.0600387E-17
  -17.60250        1.0605284E-17
  -17.46000        1.0620263E-17
  -17.31750        1.0636266E-17
  -17.17500        1.0643528E-17
  -17.03250        1.0637678E-17
  -16.89000        1.0622567E-17
  -16.74750        1.0608103E-17
  -16.60500        1.0604382E-17
  -16.46250        1.0615681E-17
  -16.32000        1.0637912E-17
  -16.17750        1.0661058E-17
  -16.03500        1.0675122E-17
  -15.89250        1.0676014E-17
  -15.75000        1.0667824E-17
  -15.60750        1.0660180E-17
  -15.46500        1.0662289E-17
  -15.32250        1.0677290E-17
  -15.18000        1.0700343E-17
  -15.03750        1.0721556E-17
  -14.89500        1.0731997E-17
  -14.75250        1.0729093E-17
  -14.61000        1.0718178E-17
  -14.46750        1.0709237E-17
  -14.32500        1.0710837E-17
  -14.18250        1.0724932E-17
  -14.04000        1.0745679E-17
  -13.89750        1.0763002E-17
  -13.75500        1.0768724E-17
  -13.61250        1.0761562E-17
  -13.47000        1.0747946E-17
  -13.32750        1.0738177E-17
  -13.18500        1.0740236E-17
  -13.04250        1.0755004E-17
  -12.90000        1.0775773E-17
  -12.75750        1.0792357E-17
  -12.61500        1.0797295E-17
  -12.47250        1.0790387E-17
  -12.33000        1.0778798E-17
  -12.18750        1.0772673E-17
  -12.04500        1.0778905E-17
  -11.90250        1.0796857E-17
  -11.76000        1.0818638E-17
  -11.61750        1.0833819E-17
  -11.47500        1.0835731E-17
  -11.33250        1.0825553E-17
  -11.19000        1.0811702E-17
  -11.04750        1.0804857E-17
  -10.90500        1.0811605E-17
  -10.76250        1.0830523E-17
  -10.62000        1.0853075E-17
  -10.47750        1.0868772E-17
  -10.33500        1.0871498E-17
  -10.19250        1.0863191E-17
  -10.05000        1.0852629E-17
  -9.907500        1.0850072E-17
  -9.765000        1.0860963E-17
  -9.622500        1.0882528E-17
  -9.480000        1.0905323E-17
  -9.337500        1.0918842E-17
  -9.195000        1.0917825E-17
  -9.052500        1.0905471E-17
  -8.910000        1.0891608E-17
  -8.767500        1.0886911E-17
  -8.625000        1.0896600E-17
  -8.482500        1.0917399E-17
  -8.340000        1.0939562E-17
  -8.197500        1.0952742E-17
  -8.055000        1.0952163E-17
  -7.912500        1.0941419E-17
  -7.770000        1.0930198E-17
  -7.627500        1.0928341E-17
  -7.485000        1.0939825E-17
  -7.342500        1.0960287E-17
  -7.200000        1.0979605E-17
  -7.057500        1.0987968E-17
  -6.915000        1.0981809E-17
  -6.772500        1.0966019E-17
  -6.630000        1.0951134E-17
  -6.487500        1.0947152E-17
  -6.345000        1.0957720E-17
  -6.202500        1.0978127E-17
  -6.060000        1.0998286E-17
  -5.917500        1.1008881E-17
  -5.775000        1.1006947E-17
  -5.632500        1.0997557E-17
  -5.490000        1.0990610E-17
  -5.347500        1.0994690E-17
  -5.205000        1.1011758E-17
  -5.062500        1.1035847E-17
  -4.920000        1.1056587E-17
  -4.777500        1.1065389E-17
  -4.635000        1.1060581E-17
  -4.492500        1.1048382E-17
  -4.350000        1.1039145E-17
  -4.207500        1.1041144E-17
  -4.065000        1.1055662E-17
  -3.922500        1.1076314E-17
  -3.780000        1.1093014E-17
  -3.637500        1.1098134E-17
  -3.495000        1.1091138E-17
  -3.352500        1.1078877E-17
  -3.210000        1.1071386E-17
  -3.067500        1.1075752E-17
  -2.925000        1.1091771E-17
  -2.782500        1.1112060E-17
  -2.640000        1.1126530E-17
  -2.497500        1.1128535E-17
  -2.355000        1.1118946E-17
  -2.212500        1.1105677E-17
  -2.070000        1.1098936E-17
  -1.927500        1.1105065E-17
  -1.785000        1.1122712E-17
  -1.642500        1.1143642E-17
  -1.500000        1.1157710E-17
  -1.357500        1.1158992E-17
  -1.215000        1.1149358E-17
  -1.072500        1.1137322E-17
 -0.9300000        1.1132848E-17
 -0.7875000        1.1141273E-17
 -0.6450000        1.1160024E-17
 -0.5025000        1.1180125E-17
 -0.3600000        1.1191631E-17
 -0.2175000        1.1189680E-17
 -7.5000003E-02    1.1177519E-17
  6.7500003E-02    1.1164639E-17
  0.2100000        1.1161115E-17
  0.3525000        1.1171556E-17
  0.4950000        1.1192298E-17
  0.6375000        1.1213557E-17
  0.7800000        1.1225263E-17
  0.9225000        1.1223068E-17
   1.065000        1.1210929E-17
   1.207500        1.1198690E-17
   1.350000        1.1196141E-17
   1.492500        1.1207101E-17
   1.635000        1.1227116E-17
   1.777500        1.1246152E-17
   1.920000        1.1254678E-17
   2.062500        1.1249470E-17
   2.205000        1.1235646E-17
   2.347500        1.1223681E-17
   2.490000        1.1223188E-17
   2.632500        1.1237176E-17
   2.775000        1.1260236E-17
   2.917500        1.1281737E-17
   3.060000        1.1292119E-17
   3.202500        1.1288506E-17
   3.345000        1.1276301E-17
   3.487500        1.1265813E-17
   3.630000        1.1265976E-17
   3.772500        1.1278948E-17
   3.915000        1.1298831E-17
   4.057500        1.1315263E-17
   4.200000        1.1319728E-17
   4.342500        1.1310749E-17
   4.485000        1.1294849E-17
   4.627500        1.1282720E-17
   4.770000        1.1282873E-17
   4.912500        1.1296619E-17
   5.055000        1.1317361E-17
   5.197500        1.1334609E-17
   5.340000        1.1340279E-17
   5.482500        1.1333486E-17
   5.625000        1.1320961E-17
   5.767500        1.1312874E-17
   5.910000        1.1316622E-17
   6.052500        1.1332339E-17
   6.195000        1.1352839E-17
   6.337500        1.1368009E-17
   6.480000        1.1370967E-17
   6.622500        1.1362259E-17
   6.765000        1.1349547E-17
   6.907500        1.1342998E-17
   7.050000        1.1349145E-17
   7.192500        1.1366962E-17
   7.335000        1.1388509E-17
   7.477500        1.1403734E-17
   7.620000        1.1406541E-17
   7.762500        1.1398437E-17
   7.905000        1.1387553E-17
   8.047500        1.1383658E-17
   8.190000        1.1392195E-17
   8.332500        1.1410953E-17
   8.475000        1.1431407E-17
   8.617500        1.1443900E-17
   8.760000        1.1443521E-17
   8.902500        1.1433103E-17
   9.045000        1.1421508E-17
   9.187500        1.1418224E-17
   9.330000        1.1427558E-17
   9.472500        1.1445933E-17
   9.615000        1.1463972E-17
   9.757500        1.1472109E-17
   9.900000        1.1466365E-17
   10.04250        1.1450790E-17
   10.18500        1.1435083E-17
   10.32750        1.1428819E-17
   10.47000        1.1435762E-17
   10.61250        1.1451697E-17
   10.75500        1.1467089E-17
   10.89750        1.1472980E-17
   11.04000        1.1466534E-17
   11.18250        1.1452878E-17
   11.32500        1.1442097E-17
   11.46750        1.1443160E-17
   11.61000        1.1458457E-17
   11.75250        1.1482225E-17
   11.89500        1.1503861E-17
   12.03750        1.1514147E-17
   12.18000        1.1510665E-17
   12.32250        1.1499162E-17
   12.46500        1.1490037E-17
   12.60750        1.1492054E-17
   12.75000        1.1507082E-17
   12.89250        1.1528975E-17
   13.03500        1.1547305E-17
   13.17750        1.1553668E-17
   13.32000        1.1546771E-17
   13.46250        1.1533241E-17
   13.60500        1.1523652E-17
   13.74750        1.1526165E-17
   13.89000        1.1541596E-17
   14.03250        1.1562879E-17
   14.17500        1.1579253E-17
   14.31750        1.1582659E-17
   14.46000        1.1572521E-17
   14.60250        1.1556057E-17
   14.74500        1.1543956E-17
   14.88750        1.1544011E-17
   15.03000        1.1556557E-17
   15.17250        1.1574414E-17
   15.31500        1.1587345E-17
   15.45750        1.1588319E-17
   15.60000        1.1577789E-17
   15.74250        1.1563430E-17
   15.88500        1.1555496E-17
   16.02750        1.1560616E-17
   16.17000        1.1577784E-17
   16.31250        1.1598930E-17
   16.45500        1.1613745E-17
   16.59750        1.1615816E-17
   16.74000        1.1606402E-17
   16.88250        1.1593572E-17
   17.02500        1.1587273E-17
   17.16750        1.1593299E-17
   17.31000        1.1609834E-17
   17.45250        1.1628608E-17
   17.59500        1.1639964E-17
   17.73750        1.1638738E-17
   17.88000        1.1627390E-17
   18.02250        1.1614499E-17
   18.16500        1.1609549E-17
   18.30750        1.1617167E-17
   18.45000        1.1634338E-17
   18.59250        1.1652242E-17
   18.73500        1.1661639E-17
   18.87750        1.1658498E-17
   19.02000        1.1646468E-17
   19.16250        1.1634697E-17
   19.30500        1.1632299E-17
   19.44750        1.1642833E-17
   19.59000        1.1662142E-17
   19.73250        1.1680856E-17
   19.87500        1.1690047E-17
   20.01750        1.1686618E-17
   20.16000        1.1675143E-17
   20.30250        1.1665058E-17
   20.44500        1.1664883E-17
   20.58750        1.1676993E-17
   20.73000        1.1696120E-17
   20.87250        1.1712501E-17
   21.01500        1.1717803E-17
   21.15750        1.1710222E-17
   21.30000        1.1695680E-17
   21.44250        1.1684357E-17
   21.58500        1.1684627E-17
   21.72750        1.1698058E-17
   21.87000        1.1718469E-17
   22.01250        1.1735648E-17
   22.15500        1.1741481E-17
   22.29750        1.1734813E-17
   22.44000        1.1722102E-17
   22.58250        1.1713462E-17
   22.72500        1.1716487E-17
   22.86750        1.1731570E-17
   23.01000        1.1751557E-17
   23.15250        1.1765974E-17
   23.29500        1.1767292E-17
   23.43750        1.1755470E-17
   23.58000        1.1738053E-17
   23.72250        1.1725738E-17
   23.86500        1.1726062E-17
   24.00750        1.1738993E-17
   24.15000        1.1757054E-17
   24.29250        1.1769893E-17
   24.43500        1.1770554E-17
   24.57750        1.1759674E-17
   24.72000        1.1745083E-17
   24.86250        1.1737079E-17
   25.00500        1.1742205E-17
   25.14750        1.1759284E-17
   25.29000        1.1780092E-17
   25.43250        1.1794261E-17
   25.57500        1.1795469E-17
   25.71750        1.1785195E-17
   25.86000        1.1771804E-17
   26.00250        1.1765520E-17
   26.14500        1.1772316E-17
   26.28750        1.1790383E-17
   26.43000        1.1811280E-17
   26.57250        1.1825042E-17
   26.71500        1.1826157E-17
   26.85750        1.1816804E-17
   27.00000        1.1805443E-17
   27.14250        1.1801609E-17
   27.28500        1.1810102E-17
   27.42750        1.1828059E-17
   27.57000        1.1846678E-17
   27.71250        1.1856535E-17
   27.85500        1.1853264E-17
   27.99750        1.1840193E-17
   28.14000        1.1826328E-17
   28.28250        1.1820941E-17
   28.42500        1.1828032E-17
   28.56750        1.1843996E-17
   28.71000        1.1859906E-17
   28.85250        1.1866987E-17
   28.99500        1.1861973E-17
   29.13750        1.1849088E-17
   29.28000        1.1837468E-17
   29.42250        1.1835606E-17
   29.56500        1.1846181E-17
   29.70750        1.1864427E-17
   29.85000        1.1881021E-17
   29.99250        1.1887738E-17
   30.13500        1.1882442E-17
   30.27750        1.1870373E-17
   30.42000        1.1860964E-17
   30.56250        1.1862081E-17
   30.70500        1.1875206E-17
   30.84750        1.1894473E-17
   30.99000        1.1910163E-17
   31.13250        1.1914537E-17
   31.27500        1.1906499E-17
   31.41750        1.1892263E-17
   31.56000        1.1881590E-17
   31.70250        1.1881895E-17
   31.84500        1.1893768E-17
   31.98750        1.1910629E-17
   32.13000        1.1922741E-17
   32.27250        1.1923157E-17
   32.41500        1.1911995E-17
   32.55750        1.1896452E-17
   32.70000        1.1886508E-17
   32.84250        1.1888906E-17
   32.98500        1.1903020E-17
   33.12750        1.1921139E-17
   33.27000        1.1933004E-17
   33.41250        1.1931898E-17
   33.55500        1.1918637E-17
   33.69750        1.1901072E-17
   33.84000        1.1889385E-17
   33.98250        1.1890013E-17
   34.12500        1.1901857E-17
   34.26750        1.1917041E-17
   34.41000        1.1925768E-17
   34.55250        1.1922354E-17
   34.69500        1.1908789E-17
   34.83750        1.1893669E-17
   34.98000        1.1887149E-17
   35.12250        1.1894894E-17
   35.26500        1.1914706E-17
   35.40750        1.1937803E-17
   35.55000        1.1954020E-17
   35.69250        1.1957804E-17
   35.83500        1.1951415E-17
   35.97750        1.1943445E-17
   36.12000        1.1943550E-17
   36.26250        1.1956581E-17
   36.40500        1.1979626E-17
   36.54750        1.2003740E-17
   36.69000        1.2019283E-17
   36.83250        1.2021664E-17
   36.97500        1.2014023E-17
   37.11750        1.2005253E-17
   37.26000        1.2004579E-17
   37.40250        1.2015953E-17
   37.54500        1.2035646E-17
   37.68750        1.2054468E-17
   37.83000        1.2063273E-17
   37.97250        1.2058415E-17
   38.11500        1.2043900E-17
   38.25750        1.2028936E-17
   38.40000        1.2022394E-17
   38.54250        1.2027536E-17
   38.68500        1.2040159E-17
   38.82750        1.2051275E-17
   38.97000        1.2052659E-17
   39.11250        1.2041912E-17
   39.25500        1.2023952E-17
   39.39750        1.2008082E-17
   39.54000        1.2002379E-17
   39.68250        1.2008849E-17
   39.82500        1.2022255E-17
   39.96750        1.2033331E-17
   40.11000        1.2034425E-17
   40.25250        1.2024159E-17
   40.39500        1.2008260E-17
   40.53750        1.1996090E-17
   40.68000        1.1994958E-17
   40.82250        1.2005672E-17
   40.96500        1.2022035E-17
   41.10750        1.2034570E-17
   41.25000        1.2036244E-17
   41.39250        1.2026707E-17
   41.53500        1.2012486E-17
   41.67750        1.2003009E-17
   41.82000        1.2004878E-17
   41.96250        1.2017855E-17
   42.10500        1.2035010E-17
   42.24750        1.2046951E-17
   42.39000        1.2047577E-17
   42.53250        1.2037868E-17
   42.67500        1.2025394E-17
   42.81750        1.2019810E-17
   42.96000        1.2027051E-17
   43.10250        1.2045701E-17
   43.24500        1.2067770E-17
   43.38750        1.2083406E-17
   43.53000        1.2086731E-17
   43.67250        1.2079284E-17
   43.81500        1.2069006E-17
   43.95750        1.2065362E-17
   44.10000        1.2073556E-17
   44.24250        1.2091310E-17
   44.38500        1.2110195E-17
   44.52750        1.2120689E-17
   44.67000        1.2117954E-17
   44.81250        1.2104832E-17
   44.95500        1.2090253E-17
   45.09750        1.2083971E-17
   45.24000        1.2090793E-17
   45.38250        1.2107741E-17
   45.52500        1.2125863E-17
   45.66750        1.2135597E-17
   45.81000        1.2132474E-17
   45.95250        1.2119753E-17
   46.09500        1.2106405E-17
   46.23750        1.2101676E-17
   46.38000        1.2109486E-17
   46.52250        1.2126061E-17
   46.66500        1.2142177E-17
   46.80750        1.2148703E-17
   46.95000        1.2142091E-17
   47.09250        1.2126517E-17
   47.23500        1.2111411E-17
   47.37750        1.2105849E-17
   47.52000        1.2113177E-17
   47.66250        1.2129092E-17
   47.80500        1.2144308E-17
   47.94750        1.2150173E-17
   48.09000        1.2143879E-17
   48.23250        1.2130110E-17
   48.37500        1.2118179E-17
   48.51750        1.2116391E-17
   48.66000        1.2127045E-17
   48.80250        1.2145071E-17
   48.94500        1.2161118E-17
   49.08750        1.2167200E-17
   49.23000        1.2161492E-17
   49.37250        1.2149389E-17
   49.51500        1.2140197E-17
   49.65750        1.2141479E-17
   49.80000        1.2154461E-17
   49.94250        1.2173296E-17
   50.08500        1.2188578E-17
   50.22750        1.2193009E-17
   50.37000        1.2185762E-17
   50.51250        1.2172923E-17
   50.65500        1.2163767E-17
   50.79750        1.2165114E-17
   50.94000        1.2177218E-17
   51.08250        1.2193641E-17
   51.22500        1.2205214E-17
   51.36750        1.2205634E-17
   51.51000        1.2195330E-17
   51.65250        1.2181221E-17
   51.79500        1.2172519E-17
   51.93750        1.2175119E-17
   52.08000        1.2187979E-17
   52.22250        1.2203694E-17
   52.36500        1.2212940E-17
   52.50750        1.2210095E-17
   52.65000        1.2196653E-17
   52.79250        1.2180355E-17
   52.93500        1.2170555E-17
   53.07750        1.2172611E-17
   53.22000        1.2184712E-17
   53.36250        1.2199038E-17
   53.50500        1.2206578E-17
   53.64750        1.2202678E-17
   53.79000        1.2189956E-17
   53.93250        1.2176788E-17
   54.07500        1.2172278E-17
   54.21750        1.2180708E-17
   54.36000        1.2198851E-17
   54.50250        1.2217767E-17
   54.64500        1.2228061E-17
   54.78750        1.2225433E-17
   54.93000        1.2213203E-17
   55.07250        1.2200292E-17
   55.21500        1.2195851E-17
   55.35750        1.2203788E-17
   55.50000        1.2220456E-17
   55.64250        1.2236917E-17
   55.78500        1.2244399E-17
   55.92750        1.2239669E-17
   56.07000        1.2227074E-17
   56.21250        1.2215999E-17
   56.35500        1.2215253E-17
   56.49750        1.2227763E-17
   56.64000        1.2248740E-17
   56.78250        1.2268453E-17
   56.92500        1.2277947E-17
   57.06750        1.2274290E-17
   57.21000        1.2262224E-17
   57.35250        1.2251244E-17
   57.49500        1.2249854E-17
   57.63750        1.2260478E-17
   57.78000        1.2278046E-17
   57.92250        1.2293093E-17
   58.06500        1.2297493E-17
   58.20750        1.2289372E-17
   58.35000        1.2274229E-17
   58.49250        1.2261621E-17
   58.63500        1.2259414E-17
   58.77750        1.2269055E-17
   58.92000        1.2284720E-17
   59.06250        1.2296848E-17
   59.20500        1.2297909E-17
   59.34750        1.2286958E-17
   59.49000        1.2270230E-17
   59.63250        1.2257434E-17
   59.77500        1.2255992E-17
   59.91750        1.2266682E-17
   60.06000        1.2283291E-17
   60.20250        1.2296443E-17
   60.34500        1.2299289E-17
   60.48750        1.2291576E-17
   60.63000        1.2279686E-17
   60.77250        1.2272626E-17
   60.91500        1.2276427E-17
   61.05750        1.2290370E-17
   61.20000        1.2307337E-17
   61.34250        1.2318068E-17
   61.48500        1.2316773E-17
   61.62750        1.2304673E-17
   61.77000        1.2289350E-17
   61.91250        1.2280265E-17
   62.05500        1.2283174E-17
   62.19750        1.2296769E-17
   62.34000        1.2313600E-17
   62.48250        1.2324655E-17
   62.62500        1.2324846E-17
   62.76750        1.2316048E-17
   62.91000        1.2305861E-17
   63.05250        1.2302839E-17
   63.19500        1.2311128E-17
   63.33750        1.2327751E-17
   63.48000        1.2344250E-17
   63.62250        1.2351709E-17
   63.76500        1.2346135E-17
   63.90750        1.2330934E-17
   64.05000        1.2314976E-17
   64.19250        1.2307364E-17
   64.33500        1.2312071E-17
   64.47750        1.2325647E-17
   64.62000        1.2339390E-17
   64.76250        1.2344664E-17
   64.90500        1.2338170E-17
   65.04750        1.2323951E-17
   65.19000        1.2310946E-17
   65.33250        1.2307544E-17
   65.47500        1.2316436E-17
   65.61750        1.2332898E-17
   65.76000        1.2347567E-17
   65.90250        1.2352049E-17
   66.04500        1.2344027E-17
   66.18750        1.2328746E-17
   66.33000        1.2315980E-17
   66.47250        1.2314271E-17
   66.61500        1.2325880E-17
   66.75750        1.2345471E-17
   66.90000        1.2363327E-17
   67.04250        1.2371149E-17
   67.18500        1.2366980E-17
   67.32750        1.2356294E-17
   67.47000        1.2348600E-17
   67.61250        1.2351625E-17
   67.75500        1.2366581E-17
   67.89750        1.2387351E-17
   68.04000        1.2404116E-17
   68.18250        1.2409215E-17
   68.32500        1.2401738E-17
   68.46750        1.2388076E-17
   68.61000        1.2378092E-17
   68.75250        1.2379220E-17
   68.89500        1.2392018E-17
   69.03750        1.2409835E-17
   69.18000        1.2422789E-17
   69.32250        1.2423649E-17
   69.46500        1.2412109E-17
   69.60750        1.2394892E-17
   69.75000        1.2381668E-17
   69.89250        1.2379260E-17
   70.03500        1.2387637E-17
   70.17750        1.2400096E-17
   70.32000        1.2407492E-17
   70.46250        1.2403945E-17
   70.60500        1.2390544E-17
   70.74750        1.2374814E-17
   70.89000        1.2366253E-17
   71.03250        1.2370645E-17
   71.17500        1.2386549E-17
   71.31750        1.2406114E-17
   71.46000        1.2419688E-17
   71.60250        1.2421451E-17
   71.74500        1.2412712E-17
   71.88750        1.2400881E-17
   72.03000        1.2394794E-17
   72.17250        1.2399257E-17
   72.31500        1.2412117E-17
   72.45750        1.2425633E-17
   72.60000        1.2431305E-17
   72.74250        1.2425196E-17
   72.88500        1.2410515E-17
   73.02750        1.2395829E-17
   73.17000        1.2389999E-17
   73.31250        1.2396867E-17
   73.45500        1.2412910E-17
   73.59750        1.2429304E-17
   73.74000        1.2437139E-17
   73.88250        1.2432670E-17
   74.02500        1.2419425E-17
   74.16750        1.2405923E-17
   74.31000        1.2400398E-17
   74.45250        1.2405734E-17
   74.59500        1.2417704E-17
   74.73750        1.2427586E-17
   74.88000        1.2427574E-17
   75.02250        1.2415700E-17
   75.16500        1.2397249E-17
   75.30750        1.2381766E-17
   75.45000        1.2377443E-17
   75.59250        1.2386230E-17
   75.73500        1.2402640E-17
   75.87750        1.2416996E-17
   76.02000        1.2421169E-17
   76.16250        1.2413396E-17
   76.30500        1.2399265E-17
   76.44750        1.2388288E-17
   76.59000        1.2388129E-17
   76.73250        1.2399963E-17
   76.87500        1.2417772E-17
   77.01750        1.2431998E-17
   77.16000        1.2435371E-17
   77.30250        1.2427362E-17
   77.44500        1.2414584E-17
   77.58750        1.2406848E-17
   77.73000        1.2411251E-17
   77.87250        1.2427828E-17
   78.01500        1.2449390E-17
   78.15750        1.2465683E-17
   78.30000        1.2469366E-17
   78.44250        1.2460267E-17
   78.58500        1.2445374E-17
   78.72750        1.2434571E-17
   78.87000        1.2434722E-17
   79.01250        1.2445621E-17
   79.15500        1.2460248E-17
   79.29750        1.2469145E-17
   79.44000        1.2466240E-17
   79.58250        1.2452628E-17
   79.72500        1.2435980E-17
   79.86750        1.2425978E-17
   80.01000        1.2428494E-17
   80.15250        1.2442026E-17
   80.29500        1.2458558E-17
   80.43750        1.2468294E-17
   80.58000        1.2465454E-17
   80.72250        1.2451660E-17
   80.86500        1.2434890E-17
   81.00750        1.2424666E-17
   81.15000        1.2426384E-17
   81.29250        1.2438197E-17
   81.43500        1.2452281E-17
   81.57750        1.2459708E-17
   81.72000        1.2455916E-17
   81.86250        1.2443473E-17
   82.00500        1.2430469E-17
   82.14750        1.2425507E-17
   82.29000        1.2432370E-17
   82.43250        1.2447593E-17
   82.57500        1.2462426E-17
   82.71750        1.2468028E-17
   82.86000        1.2460747E-17
   83.00250        1.2444321E-17
   83.14500        1.2427656E-17
   83.28750        1.2419559E-17
   83.43000        1.2423576E-17
   83.57250        1.2436062E-17
   83.71500        1.2448598E-17
   83.85750        1.2453279E-17
   84.00000        1.2447621E-17
   84.14250        1.2436103E-17
   84.28500        1.2427387E-17
   84.42750        1.2428935E-17
   84.57000        1.2442272E-17
   84.71250        1.2461833E-17
   84.85500        1.2478120E-17
   84.99750        1.2483285E-17
   85.14000        1.2475807E-17
   85.28250        1.2461410E-17
   85.42500        1.2449663E-17
   85.56750        1.2448295E-17
   85.71000        1.2458644E-17
   85.85250        1.2474969E-17
   85.99500        1.2488033E-17
   86.13750        1.2490780E-17
   86.28000        1.2482654E-17
   86.42250        1.2469950E-17
   86.56500        1.2461942E-17
   86.70750        1.2465164E-17
   86.85000        1.2479290E-17
   86.99250        1.2497140E-17
   87.13500        1.2508863E-17
   87.27750        1.2507801E-17
   87.42000        1.2494508E-17
   87.56250        1.2476524E-17
   87.70500        1.2463979E-17
   87.84750        1.2463670E-17
   87.99000        1.2475135E-17
   88.13250        1.2491061E-17
   88.27500        1.2501775E-17
   88.41750        1.2501095E-17
   88.56000        1.2490018E-17
   88.70250        1.2476039E-17
   88.84500        1.2468507E-17
   88.98750        1.2472841E-17
   89.13000        1.2487099E-17
   89.27250        1.2502997E-17
   89.41500        1.2510783E-17
   89.55750        1.2505048E-17
   89.70000        1.2488011E-17
   89.84250        1.2468284E-17
   89.98500        1.2455859E-17
   90.12750        1.2456319E-17
   90.27000        1.2467711E-17
   90.41250        1.2481923E-17
   90.55500        1.2489713E-17
   90.69750        1.2486325E-17
   90.84000        1.2474320E-17
   90.98250        1.2461942E-17
   91.12500        1.2458035E-17
   91.26750        1.2466585E-17
   91.41000        1.2484214E-17
   91.55250        1.2502132E-17
   91.69500        1.2511365E-17
   91.83750        1.2508113E-17
   91.98000        1.2496005E-17
   92.12250        1.2483898E-17
   92.26500        1.2480557E-17
   92.40750        1.2489423E-17
   92.55000        1.2506593E-17
   92.69250        1.2523226E-17
   92.83500        1.2530876E-17
   92.97750        1.2526527E-17
   93.12000        1.2514302E-17
   93.26250        1.2502828E-17
   93.40500        1.2499897E-17
   93.54750        1.2507680E-17
   93.69000        1.2521403E-17
   93.83250        1.2532299E-17
   93.97500        1.2533022E-17
   94.11750        1.2522247E-17
   94.26000        1.2505629E-17
   94.40250        1.2492534E-17
   94.54500        1.2490489E-17
   94.68750        1.2500708E-17
   94.83000        1.2517383E-17
   94.97250        1.2531169E-17
   95.11500        1.2534761E-17
   95.25750        1.2527177E-17
   95.40000        1.2514195E-17
   95.54250        1.2504670E-17
   95.68500        1.2505003E-17
   95.82750        1.2515140E-17
   95.97000        1.2528545E-17
   96.11250        1.2536183E-17
   96.25500        1.2532118E-17
   96.39750        1.2517301E-17
   96.54000        1.2499241E-17
   96.68250        1.2487689E-17
   96.82500        1.2488917E-17
   96.96750        1.2502013E-17
   97.11000        1.2519429E-17
   97.25250        1.2531471E-17
   97.39500        1.2532023E-17
   97.53750        1.2522096E-17
   97.68000        1.2509056E-17
   97.82250        1.2502023E-17
   97.96500        1.2506233E-17
   98.10750        1.2519771E-17
   98.25000        1.2534687E-17
   98.39250        1.2541814E-17
   98.53500        1.2536408E-17
   98.67750        1.2521177E-17
   98.82000        1.2504862E-17
   98.96250        1.2497159E-17
   99.10500        1.2503026E-17
   99.24750        1.2519758E-17
   99.39000        1.2538592E-17