  -30.00000        4.8965759E-18
  -29.85750        4.9019232E-18
  -29.71500        4.9116996E-18
  -29.57250        4.9243174E-18
  -29.43000        4.9378299E-18
  -29.28750        4.9503033E-18
  -29.14500        4.9601960E-18
  -29.00250        4.9666418E-18
  -28.86000        4.9696043E-18
  -28.71750        4.9698595E-18
  -28.57500        4.9688148E-18
  -28.43250        4.9682056E-18
  -28.29000        4.9697218E-18
  -28.14750        4.9746501E-18
  -28.00500        4.9835982E-18
  -27.86250        4.9963533E-18
  -27.72000        5.0119159E-18
  -27.57750        5.0286870E-18
  -27.43500        5.0447868E-18
  -27.29250        5.0584245E-18
  -27.15000        5.0682601E-18
  -27.00750        5.0736719E-18
  -26.86500        5.0748838E-18
  -26.72250        5.0729213E-18
  -26.58000        5.0694074E-18
  -26.43750        5.0662426E-18
  -26.29500        5.0652272E-18
  -26.15250        5.0677080E-18
  -26.01000        5.0743138E-18
  -25.86750        5.0848380E-18
  -25.72500        5.0982897E-18
  -25.58250        5.1130941E-18
  -25.44000        5.1274168E-18
  -25.29750        5.1395329E-18
  -25.15500        5.1481761E-18
  -25.01250        5.1527951E-18
  -24.87000        5.1536574E-18
  -24.72750        5.1517975E-18
  -24.58500        5.1487977E-18
  -24.44250        5.1464688E-18
  -24.30000        5.1464738E-18
  -24.15750        5.1499934E-18
  -24.01500        5.1574819E-18
  -23.87250        5.1685797E-18
  -23.73000        5.1821815E-18
  -23.58750        5.1966654E-18
  -23.44500        5.2102208E-18
  -23.30250        5.2212137E-18
  -23.16000        5.2285177E-18
  -23.01750        5.2317433E-18
  -22.87500        5.2313164E-18
  -22.73250        5.2283957E-18
  -22.59000        5.2246382E-18
  -22.44750        5.2218651E-18
  -22.30500        5.2216938E-18
  -22.16250        5.2252094E-18
  -22.02000        5.2327433E-18
  -21.87750        5.2438060E-18
  -21.73500        5.2571882E-18
  -21.59250        5.2712047E-18
  -21.45000        5.2840401E-18
  -21.30750        5.2941156E-18
  -21.16500        5.3004083E-18
  -21.02250        5.3026554E-18
  -20.88000        5.3014059E-18
  -20.73750        5.2979057E-18
  -20.59500        5.2938409E-18
  -20.45250        5.2910000E-18
  -20.31000        5.2909032E-18
  -20.16750        5.2944986E-18
  -20.02500        5.3019639E-18
  -19.88250        5.3126742E-18
  -19.74000        5.3253263E-18
  -19.59750        5.3382088E-18
  -19.45500        5.3495557E-18
  -19.31250        5.3579148E-18
  -19.17000        5.3624535E-18
  -19.02750        5.3631363E-18
  -18.88500        5.3607417E-18
  -18.74250        5.3567063E-18
  -18.60000        5.3528375E-18
  -18.45750        5.3509441E-18
  -18.31500        5.3524698E-18
  -18.17250        5.3581898E-18
  -18.03000        5.3680461E-18
  -17.88750        5.3811457E-18
  -17.74500        5.3959245E-18
  -17.60250        5.4104482E-18
  -17.46000        5.4227901E-18
  -17.31750        5.4314110E-18
  -17.17500        5.4354621E-18
  -17.03250        5.4349588E-18
  -16.89000        5.4307778E-18
  -16.74750        5.4244871E-18
  -16.60500        5.4180334E-18
  -16.46250        5.4133578E-18
  -16.32000        5.4120128E-18
  -16.17750        5.4148583E-18
  -16.03500        5.4219013E-18
  -15.89250        5.4323044E-18
  -15.75000        5.4445636E-18
  -15.60750        5.4568150E-18
  -15.46500        5.4672155E-18
  -15.32250        5.4743107E-18
  -15.18000        5.4773270E-18
  -15.03750        5.4763215E-18
  -14.89500        5.4721699E-18
  -14.75250        5.4663821E-18
  -14.61000        5.4607945E-18
  -14.46750        5.4571913E-18
  -14.32500        5.4569370E-18
  -14.18250        5.4606911E-18
  -14.04000        5.4682689E-18
  -13.89750        5.4786749E-18
  -13.75500        5.4903009E-18
  -13.61250        5.5012470E-18
  -13.47000        5.5097082E-18
  -13.32750        5.5143350E-18
  -13.18500        5.5145034E-18
  -13.04250        5.5104465E-18
  -12.90000        5.5032099E-18
  -12.75750        5.4944509E-18
  -12.61500        5.4861195E-18
  -12.47250        5.4800786E-18
  -12.33000        5.4777451E-18
  -12.18750        5.4798193E-18
  -12.04500        5.4861580E-18
  -11.90250        5.4958157E-18
  -11.76000        5.5072498E-18
  -11.61750        5.5186409E-18
  -11.47500        5.5282763E-18
  -11.33250        5.5348950E-18
  -11.19000        5.5379469E-18
  -11.04750        5.5376959E-18
  -10.90500        5.5351548E-18
  -10.76250        5.5318692E-18
  -10.62000        5.5295845E-18
  -10.47750        5.5298807E-18
  -10.33500        5.5338304E-18
  -10.19250        5.5417643E-18
  -10.05000        5.5531782E-18
  -9.907500        5.5668072E-18
  -9.765000        5.5808565E-18
  -9.622500        5.5933370E-18
  -9.480000        5.6024504E-18
  -9.337500        5.6069383E-18
  -9.195000        5.6063320E-18
  -9.052500        5.6010455E-18
  -8.910000        5.5922976E-18
  -8.767500        5.5818735E-18
  -8.625000        5.5717774E-18
  -8.482500        5.5638488E-18
  -8.340000        5.5594168E-18
  -8.197500        5.5590603E-18
  -8.055000        5.5625245E-18
  -7.912500        5.5688032E-18
  -7.770000        5.5763624E-18
  -7.627500        5.5834716E-18
  -7.485000        5.5885633E-18
  -7.342500        5.5905610E-18
  -7.200000        5.5890993E-18
  -7.057500        5.5846032E-18
  -6.915000        5.5782033E-18
  -6.772500        5.5715044E-18
  -6.630000        5.5662518E-18
  -6.487500        5.5639692E-18
  -6.345000        5.5656409E-18
  -6.202500        5.5715040E-18
  -6.060000        5.5809934E-18
  -5.917500        5.5928564E-18
  -5.775000        5.6054006E-18
  -5.632500        5.6168335E-18
  -5.490000        5.6256198E-18
  -5.347500        5.6307793E-18
  -5.205000        5.6320734E-18
  -5.062500        5.6300448E-18
  -4.920000        5.6258969E-18
  -4.777500        5.6212428E-18
  -4.635000        5.6177723E-18
  -4.492500        5.6168996E-18
  -4.350000        5.6194713E-18
  -4.207500        5.6255842E-18
  -4.065000        5.6345633E-18
  -3.922500        5.6450962E-18
  -3.780000        5.6555099E-18
  -3.637500        5.6641205E-18
  -3.495000        5.6695877E-18
  -3.352500        5.6712012E-18
  -3.210000        5.6690356E-18
  -3.067500        5.6639455E-18
  -2.925000        5.6574013E-18
  -2.782500        5.6511979E-18
  -2.640000        5.6471025E-18
  -2.497500        5.6464986E-18
  -2.355000        5.6501043E-18
  -2.212500        5.6578252E-18
  -2.070000        5.6687560E-18
  -1.927500        5.6813523E-18
  -1.785000        5.6937257E-18
  -1.642500        5.7040162E-18
  -1.500000        5.7107611E-18
  -1.357500        5.7131855E-18
  -1.215000        5.7113587E-18
  -1.072500        5.7061735E-18
 -0.9300000        5.6991656E-18
 -0.7875000        5.6921983E-18
 -0.6450000        5.6870884E-18
 -0.5025000        5.6852450E-18
 -0.3600000        5.6873916E-18
 -0.2175000        5.6934283E-18
 -7.5000003E-02    5.7024603E-18
  6.7500003E-02    5.7129767E-18
  0.2100000        5.7231576E-18
  0.3525000        5.7312342E-18
  0.4950000        5.7358470E-18
  0.6375000        5.7363189E-18
  0.7800000        5.7327980E-18
  0.9225000        5.7262318E-18
   1.065000        5.7181792E-18
   1.207500        5.7104960E-18
   1.350000        5.7049596E-18
   1.492500        5.7029111E-18
   1.635000        5.7049878E-18
   1.777500        5.7110018E-18
   1.920000        5.7199887E-18
   2.062500        5.7304140E-18
   2.205000        5.7404841E-18
   2.347500        5.7485111E-18
   2.490000        5.7532475E-18
   2.632500        5.7541318E-18
   2.775000        5.7513976E-18
   2.917500        5.7460267E-18
   3.060000        5.7395503E-18
   3.202500        5.7337422E-18
   3.345000        5.7302594E-18
   3.487500        5.7303040E-18
   3.630000        5.7343775E-18
   3.772500        5.7421741E-18
   3.915000        5.7526487E-18
   4.057500        5.7642325E-18
   4.200000        5.7751587E-18
   4.342500        5.7838288E-18
   4.485000        5.7891364E-18
   4.627500        5.7906895E-18
   4.770000        5.7888800E-18
   4.912500        5.7847979E-18
   5.055000        5.7800064E-18
   5.197500        5.7762175E-18
   5.340000        5.7749449E-18
   5.482500        5.7771903E-18
   5.625000        5.7832308E-18
   5.767500        5.7925444E-18
   5.910000        5.8039020E-18
   6.052500        5.8156046E-18
   6.195000        5.8258144E-18
   6.337500        5.8329319E-18
   6.480000        5.8359230E-18
   6.622500        5.8345342E-18
   6.765000        5.8293523E-18
   6.907500        5.8216918E-18
   7.050000        5.8133385E-18
   7.192500        5.8062024E-18
   7.335000        5.8019486E-18
   7.477500        5.8016827E-18
   7.620000        5.8057470E-18
   7.762500        5.8136673E-18
   7.905000        5.8242544E-18
   8.047500        5.8358436E-18
   8.190000        5.8466263E-18
   8.332500        5.8550048E-18
   8.475000        5.8599104E-18
   8.617500        5.8610102E-18
   8.760000        5.8587664E-18
   8.902500        5.8543265E-18
   9.045000        5.8492749E-18
   9.187500        5.8452917E-18
   9.330000        5.8437945E-18
   9.472500        5.8456420E-18
   9.615000        5.8509533E-18
   9.757500        5.8590890E-18
   9.900000        5.8687844E-18
   10.04250        5.8784074E-18
   10.18500        5.8862925E-18
   10.32750        5.8910732E-18
   10.47000        5.8919649E-18
   10.61250        5.8889279E-18
   10.75500        5.8826860E-18
   10.89750        5.8745962E-18
   11.04000        5.8663848E-18
   11.18250        5.8598058E-18
   11.32500        5.8562907E-18
   11.46750        5.8566563E-18
   11.61000        5.8609452E-18
   11.75250        5.8684200E-18
   11.89500        5.8777316E-18
   12.03750        5.8872003E-18
   12.18000        5.8951735E-18
   12.32250        5.9003662E-18
   12.46500        5.9021227E-18
   12.60750        5.9005461E-18
   12.75000        5.8964780E-18
   12.89250        5.8913234E-18
   13.03500        5.8867710E-18
   13.17750        5.8844487E-18
   13.32000        5.8855878E-18
   13.46250        5.8907609E-18
   13.60500        5.8997437E-18
   13.74750        5.9115393E-18
   13.89000        5.9245562E-18
   14.03250        5.9369213E-18
   14.17500        5.9468512E-18
   14.31750        5.9530175E-18
   14.46000        5.9548108E-18
   14.60250        5.9524703E-18
   14.74500        5.9470307E-18
   14.88750        5.9401138E-18
   15.03000        5.9336081E-18
   15.17250        5.9292968E-18
   15.31500        5.9285147E-18
   15.45750        5.9318917E-18
   15.60000        5.9392379E-18
   15.74250        5.9495780E-18
   15.88500        5.9613467E-18
   16.02750        5.9726911E-18
   16.17000        5.9818410E-18
   16.31250        5.9874629E-18
   16.45500        5.9889299E-18
   16.59750        5.9864508E-18
   16.74000        5.9810266E-18
   16.88250        5.9742429E-18
   17.02500        5.9679398E-18
   17.16750        5.9638353E-18
   17.31000        5.9631785E-18
   17.45250        5.9665013E-18
   17.59500        5.9735208E-18
   17.73750        5.9832071E-18
   17.88000        5.9939943E-18
   18.02250        6.0040942E-18
   18.16500        6.0118503E-18
   18.30750        6.0160643E-18
   18.45000        6.0162356E-18
   18.59250        6.0126634E-18
   18.73500        6.0063954E-18
   18.87750        5.9990186E-18
   19.02000        5.9923416E-18
   19.16250        5.9880270E-18
   19.30500        5.9872520E-18
   19.44750        5.9904681E-18
   19.59000        5.9973175E-18
   19.73250        6.0067159E-18
   19.87500        6.0170871E-18
   20.01750        6.0266882E-18
   20.16000        6.0339670E-18
   20.30250        6.0378696E-18
   20.44500        6.0380462E-18
   20.58750        6.0349112E-18
   20.73000        6.0295548E-18
   20.87250        6.0235255E-18
   21.01500        6.0185169E-18
   21.15750        6.0160259E-18
   21.30000        6.0170441E-18
   21.44250        6.0218476E-18
   21.58500        6.0299299E-18
   21.72750        6.0400981E-18
   21.87000        6.0507178E-18
   22.01250        6.0600526E-18
   22.15500        6.0666224E-18
   22.29750        6.0695110E-18
   22.44000        6.0685489E-18
   22.58250        6.0643448E-18
   22.72500        6.0581509E-18
   22.86750        6.0516099E-18
   23.01000        6.0464227E-18
   23.15250        6.0440127E-18
   23.29500        6.0452460E-18
   23.43750        6.0502554E-18
   23.58000        6.0584139E-18
   23.72250        6.0684460E-18
   23.86500        6.0786774E-18
   24.00750        6.0873681E-18
   24.15000        6.0930653E-18
   24.29250        6.0949046E-18
   24.43500        6.0927928E-18
   24.57750        6.0874306E-18
   24.72000        6.0801721E-18
   24.86250        6.0727390E-18
   25.00500        6.0668772E-18
   25.14750        6.0640019E-18
   25.29000        6.0649251E-18
   25.43250        6.0697070E-18
   25.57500        6.0776599E-18
   25.71750        6.0874959E-18
   25.86000        6.0975846E-18
   26.00250        6.1062824E-18
   26.14500        6.1122522E-18
   26.28750        6.1147358E-18
   26.43000        6.1137085E-18
   26.57250        6.1098885E-18
   26.71500        6.1045946E-18
   26.85750        6.0994743E-18
   27.00000        6.0961594E-18
   27.14250        6.0959195E-18
   27.28500        6.0993924E-18
   27.42750        6.1064499E-18
   27.57000        6.1162280E-18
   27.71250        6.1273052E-18
   27.85500        6.1379986E-18
   27.99750        6.1467030E-18
   28.14000        6.1522087E-18
   28.28250        6.1539351E-18
   28.42500        6.1520421E-18
   28.56750        6.1473974E-18
   28.71000        6.1414045E-18
   28.85250        6.1357276E-18
   28.99500        6.1319585E-18
   29.13750        6.1312935E-18
   29.28000        6.1342804E-18
   29.42250        6.1407002E-18
   29.56500        6.1496040E-18
   29.70750        6.1595094E-18
   29.85000        6.1687114E-18
   29.99250        6.1756378E-18
   30.13500        6.1791752E-18
   30.27750        6.1788990E-18
   30.42000        6.1751489E-18
   30.56250        6.1689567E-18
   30.70500        6.1618297E-18
   30.84750        6.1554505E-18
   30.99000        6.1513439E-18
   31.13250        6.1505755E-18
   31.27500        6.1535384E-18
   31.41750        6.1598709E-18
   31.56000        6.1685145E-18
   31.70250        6.1779225E-18
   31.84500        6.1863680E-18
   31.98750        6.1923005E-18
   32.13000        6.1946716E-18
   32.27250        6.1931662E-18
   32.41500        6.1882718E-18
   32.55750        6.1811878E-18
   32.70000        6.1735798E-18
   32.84250        6.1672411E-18
   32.98500        6.1637351E-18
   33.12750        6.1640891E-18
   33.27000        6.1685940E-18
   33.41250        6.1767570E-18
   33.55500        6.1873937E-18
   33.69750        6.1988555E-18
   33.84000        6.2093355E-18
   33.98250        6.2172148E-18
   34.12500        6.2213693E-18
   34.26750        6.2213933E-18
   34.41000        6.2176805E-18
   34.55250        6.2113493E-18
   34.69500        6.2040126E-18
   34.83750        6.1974522E-18
   34.98000        6.1932526E-18
   35.12250        6.1924800E-18
   35.26500        6.1954823E-18
   35.40750        6.2018334E-18
   35.55000        6.2104464E-18
   35.69250        6.2198084E-18
   35.83500        6.2282982E-18
   35.97750        6.2345066E-18
   36.12000        6.2375142E-18
   36.26250        6.2370671E-18
   36.40500        6.2336252E-18
   36.54750        6.2282734E-18
   36.69000        6.2225083E-18
   36.83250        6.2179431E-18
   36.97500        6.2159740E-18
   37.11750        6.2174911E-18
   37.26000        6.2226854E-18
   37.40250        6.2310047E-18
   37.54500        6.2412684E-18
   37.68750        6.2519175E-18
   37.83000        6.2613465E-18
   37.97250        6.2682357E-18
   38.11500        6.2718178E-18
   38.25750        6.2720250E-18
   38.40000        6.2694848E-18
   38.54250        6.2653824E-18
   38.68500        6.2612142E-18
   38.82750        6.2584837E-18
   38.97000        6.2584001E-18
   39.11250        6.2616249E-18
   39.25500        6.2681240E-18
   39.39750        6.2771606E-18
   39.54000        6.2874193E-18
   39.68250        6.2972714E-18
   39.82500        6.3050998E-18
   39.96750        6.3096456E-18
   40.11000        6.3102730E-18
   40.25250        6.3071116E-18
   40.39500        6.3010305E-18
   40.53750        6.2934560E-18
   40.68000        6.2860797E-18
   40.82250        6.2805119E-18
   40.96500        6.2779646E-18
   41.10750        6.2790184E-18
   41.25000        6.2835162E-18
   41.39250        6.2905965E-18
   41.53500        6.2988633E-18
   41.67750        6.3066562E-18
   41.82000        6.3123770E-18
   41.96250        6.3148130E-18
   42.10500        6.3133886E-18
   42.24750        6.3083027E-18
   42.39000        6.3005044E-18
   42.53250        6.2915101E-18
   42.67500        6.2831047E-18
   42.81750        6.2769778E-18
   42.96000        6.2743870E-18
   43.10250        6.2759169E-18
   43.24500        6.2813825E-18
   43.38750        6.2898892E-18
   43.53000        6.3000330E-18
   43.67250        6.3101874E-18
   43.81500        6.3188224E-18
   43.95750        6.3247921E-18
   44.10000        6.3275479E-18
   44.24250        6.3272327E-18
   44.38500        6.3246436E-18
   44.52750        6.3210661E-18
   44.67000        6.3180088E-18
   44.81250        6.3168806E-18
   44.95500        6.3186846E-18
   45.09750        6.3237929E-18
   45.24000        6.3318554E-18
   45.38250        6.3418689E-18
   45.52500        6.3523840E-18
   45.66750        6.3618147E-18
   45.81000        6.3687601E-18
   45.95250        6.3722905E-18
   46.09500        6.3721184E-18
   46.23750        6.3686463E-18
   46.38000        6.3628755E-18
   46.52250        6.3562084E-18
   46.66500        6.3501820E-18
   46.80750        6.3461768E-18
   46.95000        6.3451503E-18
   47.09250        6.3474507E-18
   47.23500        6.3527421E-18
   47.37750        6.3600689E-18
   47.52000        6.3680499E-18
   47.66250        6.3751695E-18
   47.80500        6.3801082E-18
   47.94750        6.3820264E-18
   48.09000        6.3807538E-18
   48.23250        6.3768222E-18
   48.37500        6.3713541E-18
   48.51750        6.3658240E-18
   48.66000        6.3617551E-18
   48.80250        6.3604122E-18
   48.94500        6.3625546E-18
   49.08750        6.3682795E-18
   49.23000        6.3769996E-18
   49.37250        6.3875329E-18
   49.51500        6.3983132E-18
   49.65750        6.4076740E-18
   49.80000        6.4141661E-18
   49.94250        6.4168445E-18
   50.08500        6.4154668E-18
   50.22750        6.4105526E-18
   50.37000        6.4032878E-18
   50.51250        6.3952865E-18
   50.65500        6.3882629E-18
   50.79750        6.3836886E-18
   50.94000        6.3825074E-18
   51.08250        6.3849703E-18
   51.22500        6.3906121E-18
   51.36750        6.3983698E-18
   51.51000        6.4068079E-18
   51.65250        6.4144085E-18
   51.79500        6.4198637E-18
   51.93750        6.4223295E-18
   52.08000        6.4215942E-18
   52.22250        6.4181262E-18
   52.36500        6.4129882E-18
   52.50750        6.4076326E-18
   52.65000        6.4036009E-18
   52.79250        6.4022018E-18
   52.93500        6.4042283E-18
   53.07750        6.4097899E-18
   53.22000        6.4182883E-18
   53.36250        6.4285541E-18
   53.50500        6.4390969E-18
   53.64750        6.4484151E-18
   53.79000        6.4552923E-18
   53.93250        6.4590253E-18
   54.07500        6.4595386E-18
   54.21750        6.4573747E-18
   54.36000        6.4535713E-18
   54.50250        6.4494470E-18
   54.64500        6.4463335E-18
   54.78750        6.4453008E-18
   54.93000        6.4469291E-18
   55.07250        6.4511717E-18
   55.21500        6.4573491E-18
   55.35750        6.4642858E-18
   55.50000        6.4705629E-18
   55.64250        6.4748336E-18
   55.78500        6.4761302E-18
   55.92750        6.4740837E-18
   56.07000        6.4690131E-18
   56.21250        6.4618638E-18
   56.35500        6.4540126E-18
   56.49750        6.4469965E-18
   56.64000        6.4422133E-18
   56.78250        6.4406623E-18
   56.92500        6.4427576E-18
   57.06750        6.4482513E-18
   57.21000        6.4562721E-18
   57.35250        6.4654836E-18
   57.49500        6.4743311E-18
   57.63750        6.4813476E-18
   57.78000        6.4854517E-18
   57.92250        6.4861780E-18
   58.06500        6.4837824E-18
   58.20750        6.4791957E-18
   58.35000        6.4738211E-18
   58.49250        6.4692344E-18
   58.63500        6.4668472E-18
   58.77750        6.4676152E-18
   58.92000        6.4718508E-18
   59.06250        6.4791701E-18
   59.20500        6.4885797E-18
   59.34750        6.4986746E-18
   59.49000        6.5079039E-18
   59.63250        6.5148613E-18
   59.77500        6.5185505E-18
   59.91750        6.5185819E-18
   60.06000        6.5152600E-18
   60.20250        6.5095442E-18
   60.34500        6.5028667E-18
   60.48750        6.4968552E-18
   60.63000        6.4929927E-18
   60.77250        6.4923098E-18
   60.91500        6.4951669E-18
   61.05750        6.5011888E-18
   61.20000        6.5093564E-18
   61.34250        6.5182382E-18
   61.48500        6.5262954E-18
   61.62750        6.5321973E-18
   61.77000        6.5350809E-18
   61.91250        6.5347140E-18
   62.05500        6.5315290E-18
   62.19750        6.5265431E-18
   62.34000        6.5211631E-18
   62.48250        6.5169185E-18
   62.62500        6.5151562E-18
   62.76750        6.5167601E-18
   62.91000        6.5219502E-18
   63.05250        6.5302084E-18
   63.19500        6.5403670E-18
   63.33750        6.5508374E-18
   63.48000        6.5599397E-18
   63.62250        6.5662544E-18
   63.76500        6.5689097E-18
   63.90750        6.5677495E-18
   64.05000        6.5633465E-18
   64.19250        6.5568647E-18
   64.33500        6.5498150E-18
   64.47750        6.5437551E-18
   64.62000        6.5399923E-18
   64.76250        6.5393388E-18
   64.90500        6.5419572E-18
   65.04750        6.5473289E-18
   65.19000        6.5543451E-18
   65.33250        6.5615246E-18
   65.47500        6.5673165E-18
   65.61750        6.5704333E-18
   65.76000        6.5701397E-18
   65.90250        6.5664302E-18
   66.04500        6.5600444E-18
   66.18750        6.5523185E-18
   66.33000        6.5449045E-18
   66.47250        6.5394244E-18
   66.61500        6.5371430E-18
   66.75750        6.5387242E-18
   66.90000        6.5441141E-18
   67.04250        6.5525654E-18
   67.18500        6.5627860E-18
   67.32750        6.5731783E-18
   67.47000        6.5821326E-18
   67.61250        6.5883240E-18
   67.75500        6.5909644E-18
   67.89750        6.5899618E-18
   68.04000        6.5859492E-18
   68.18250        6.5801593E-18
   68.32500        6.5741772E-18
   68.46750        6.5696024E-18
   68.61000        6.5677103E-18
   68.75250        6.5691839E-18
   68.89500        6.5739852E-18
   69.03750        6.5813852E-18
   69.18000        6.5901355E-18
   69.32250        6.5987461E-18
   69.46500        6.6057858E-18
   69.60750        6.6101612E-18
   69.75000        6.6113138E-18
   69.89250        6.6093216E-18
   70.03500        6.6048817E-18
   70.17750        6.5991841E-18
   70.32000        6.5936899E-18
   70.46250        6.5898468E-18
   70.60500        6.5887959E-18
   70.74750        6.5911265E-18
   70.89000        6.5967389E-18
   71.03250        6.6048548E-18
   71.17500        6.6141800E-18
   71.31750        6.6231843E-18
   71.46000        6.6304234E-18
   71.60250        6.6348401E-18
   71.74500        6.6359663E-18
   71.88750        6.6339910E-18
   72.03000        6.6296988E-18
   72.17250        6.6242952E-18
   72.31500        6.6191675E-18
   72.45750        6.6156210E-18
   72.60000        6.6146346E-18
   72.74250        6.6166756E-18
   72.88500        6.6215986E-18
   73.02750        6.6286619E-18
   73.17000        6.6366607E-18
   73.31250        6.6441699E-18
   73.45500        6.6498435E-18
   73.59750        6.6527093E-18
   73.74000        6.6523834E-18
   73.88250        6.6491569E-18
   74.02500        6.6439209E-18
   74.16750        6.6379664E-18
   74.31000        6.6327022E-18
   74.45250        6.6293609E-18
   74.59500        6.6287607E-18
   74.73750        6.6311579E-18
   74.88000        6.6362149E-18
   75.02250        6.6430672E-18
   75.16500        6.6504928E-18
   75.30750        6.6571359E-18
   75.45000        6.6617702E-18
   75.59250        6.6635433E-18
   75.73500        6.6621710E-18
   75.87750        6.6580185E-18
   76.02000        6.6520471E-18
   76.16250        6.6456269E-18
   76.30500        6.6402494E-18
   76.44750        6.6372054E-18
   76.59000        6.6373142E-18
   76.73250        6.6407577E-18
   76.87500        6.6470629E-18
   77.01750        6.6552185E-18
   77.16000        6.6638969E-18
   77.30250        6.6717195E-18
   77.44500        6.6775181E-18
   77.58750        6.6805484E-18
   77.73000        6.6806204E-18
   77.87250        6.6781368E-18
   78.01500        6.6740216E-18
   78.15750        6.6695527E-18
   78.30000        6.6661100E-18
   78.44250        6.6648928E-18
   78.58500        6.6666543E-18
   78.72750        6.6715276E-18
   78.87000        6.6789863E-18
   79.01250        6.6879538E-18
   79.15500        6.6970408E-18
   79.29750        6.7048489E-18
   79.44000        6.7102620E-18
   79.58250        6.7126646E-18
   79.72500        6.7120471E-18
   79.86750        6.7089815E-18
   80.01000        6.7044928E-18
   80.15250        6.6998532E-18
   80.29500        6.6963422E-18
   80.43750        6.6950042E-18
   80.58000        6.6964440E-18
   80.72250        6.7006969E-18
   80.86500        6.7072010E-18
   81.00750        6.7148934E-18
   81.15000        6.7224187E-18
   81.29250        6.7284132E-18
   81.43500        6.7318018E-18
   81.57750        6.7320338E-18
   81.72000        6.7291987E-18
   81.86250        6.7239924E-18
   82.00500        6.7175536E-18
   82.14750        6.7112091E-18
   82.29000        6.7061981E-18
   82.43250        6.7034349E-18
   82.57500        6.7033418E-18
   82.71750        6.7057874E-18
   82.86000        6.7101189E-18
   83.00250        6.7152896E-18
   83.14500        6.7200513E-18
   83.28750        6.7232028E-18
   83.43000        6.7238344E-18
   83.57250        6.7215361E-18
   83.71500        6.7165114E-18
   83.85750        6.7095581E-18
   84.00000        6.7019166E-18
   84.14250        6.6950084E-18
   84.28500        6.6901330E-18
   84.42750        6.6881916E-18
   84.57000        6.6895101E-18
   84.71250        6.6937899E-18
   84.85500        6.7001919E-18
   84.99750        6.7075178E-18
   85.14000        6.7144463E-18
   85.28250        6.7197795E-18
   85.42500        6.7226532E-18
   85.56750        6.7226925E-18
   85.71000        6.7200852E-18
   85.85250        6.7155580E-18
   85.99500        6.7102508E-18
   86.13750        6.7054983E-18
   86.28000        6.7025552E-18
   86.42250        6.7023277E-18
   86.56500        6.7051666E-18
   86.70750        6.7107840E-18
   86.85000        6.7183163E-18
   86.99250        6.7265145E-18
   87.13500        6.7340182E-18
   87.27750        6.7396364E-18
   87.42000        6.7425787E-18
   87.56250        6.7425895E-18
   87.70500        6.7399772E-18
   87.84750        6.7355415E-18
   87.99000        6.7304200E-18
   88.13250        6.7258854E-18
   88.27500        6.7231164E-18
   88.41750        6.7229799E-18
   88.56000        6.7258535E-18
   88.70250        6.7315392E-18
   88.84500        6.7392911E-18
   88.98750        6.7479645E-18
   89.13000        6.7562636E-18
   89.27250        6.7630274E-18
   89.41500        6.7674913E-18
   89.55750        6.7694493E-18
   89.70000        6.7692789E-18
   89.84250        6.7678437E-18
   89.98500        6.7662886E-18
   90.12750        6.7657911E-18
   90.27000        6.7673201E-18
   90.41250        6.7714477E-18
   90.55500        6.7782347E-18
   90.69750        6.7872039E-18
   90.84000        6.7974117E-18
   90.98250        6.8076001E-18
   91.12500        6.8164257E-18
   91.26750        6.8227164E-18
   91.41000        6.8257219E-18
   91.55250        6.8252860E-18
   91.69500        6.8218987E-18
   91.83750        6.8166039E-18
   91.98000        6.8107822E-18
   92.12250        6.8058576E-18
   92.26500        6.8030010E-18
   92.40750        6.8029013E-18
   92.55000        6.8056517E-18
   92.69250        6.8107599E-18
   92.83500        6.8172715E-18
   92.97750        6.8239720E-18
   93.12000        6.8296275E-18
   93.26250        6.8332179E-18
   93.40500        6.8341398E-18
   93.54750        6.8323344E-18
   93.69000        6.8283201E-18
   93.83250        6.8231110E-18
   93.97500        6.8180197E-18
   94.11750        6.8143850E-18
   94.26000        6.8132774E-18
   94.40250        6.8152523E-18
   94.54500        6.8202138E-18
   94.68750        6.8274342E-18
   94.83000        6.8357064E-18
   94.97250        6.8436010E-18
   95.11500        6.8497565E-18
   95.25750        6.8531376E-18
   95.40000        6.8532187E-18
   95.54250        6.8500559E-18
   95.68500        6.8442653E-18
   95.82750        6.8368992E-18
   95.97000        6.8292552E-18
   96.11250        6.8226374E-18
   96.25500        6.8181098E-18
   96.39750        6.8162863E-18
   96.54000        6.8171962E-18
   96.68250        6.8202783E-18
   96.82500        6.8244973E-18
   96.96750        6.8285844E-18
   97.11000        6.8313261E-18
   97.25250        6.8318410E-18
   97.39500        6.8297731E-18
   97.53750        6.8253572E-18
   97.68000        6.8193518E-18
   97.82250        6.8128630E-18
   97.96500        6.8071125E-18
   98.10750        6.8031986E-18
   98.25000        6.8018954E-18
   98.39250        6.8035084E-18
   98.53500        6.8078131E-18
   98.67750        6.8140843E-18
   98.82000        6.8212122E-18
   98.96250        6.8278987E-18
   99.10500        6.8329077E-18
   99.24750        6.8353185E-18
   99.39000        6.8347304E-18