  -30.00000        9.7844703E-19
  -29.85750        9.8019931E-19
  -29.71500        9.8339739E-19
  -29.57250        9.8751313E-19
  -29.43000        9.9190536E-19
  -29.28750        9.9594789E-19
  -29.14500        9.9914867E-19
  -29.00250        1.0012395E-18
  -28.86000        1.0022155E-18
  -28.71750        1.0023274E-18
  -28.57500        1.0020215E-18
  -28.43250        1.0018472E-18
  -28.29000        1.0023454E-18
  -28.14750        1.0039350E-18
  -28.00500        1.0068211E-18
  -27.86250        1.0109471E-18
  -27.72000        1.0159937E-18
  -27.57750        1.0214398E-18
  -27.43500        1.0266651E-18
  -27.29250        1.0310779E-18
  -27.15000        1.0342388E-18
  -27.00750        1.0359521E-18
  -26.86500        1.0363033E-18
  -26.72250        1.0356394E-18
  -26.58000        1.0344941E-18
  -26.43750        1.0334802E-18
  -26.29500        1.0331691E-18
  -26.15250        1.0339831E-18
  -26.01000        1.0361168E-18
  -25.86750        1.0395032E-18
  -25.72500        1.0438283E-18
  -25.58250        1.0485905E-18
  -25.44000        1.0532013E-18
  -25.29750        1.0570987E-18
  -25.15500        1.0598669E-18
  -25.01250        1.0613220E-18
  -24.87000        1.0615529E-18
  -24.72750        1.0609028E-18
  -24.58500        1.0598971E-18
  -24.44250        1.0591313E-18
  -24.30000        1.0591416E-18
  -24.15750        1.0602979E-18
  -24.01500        1.0627285E-18
  -23.87250        1.0662993E-18
  -23.73000        1.0706466E-18
  -23.58750        1.0752532E-18
  -23.44500        1.0795502E-18
  -23.30250        1.0830304E-18
  -23.16000        1.0853467E-18
  -23.01750        1.0863814E-18
  -22.87500        1.0862725E-18
  -22.73250        1.0853902E-18
  -22.59000        1.0842633E-18
  -22.44750        1.0834727E-18
  -22.30500        1.0835276E-18
  -22.16250        1.0847583E-18
  -22.02000        1.0872413E-18
  -21.87750        1.0907872E-18
  -21.73500        1.0949802E-18
  -21.59250        1.0992698E-18
  -21.45000        1.1030904E-18
  -21.30750        1.1059764E-18
  -21.16500        1.1076573E-18
  -21.02250        1.1081109E-18
  -20.88000        1.1075655E-18
  -20.73750        1.1064546E-18
  -20.59500        1.1053336E-18
  -20.45250        1.1047716E-18
  -20.31000        1.1052374E-18
  -20.16750        1.1070038E-18
  -20.02500        1.1100853E-18
  -19.88250        1.1142284E-18
  -19.74000        1.1189615E-18
  -19.59750        1.1236889E-18
  -19.45500        1.1278167E-18
  -19.31250        1.1308833E-18
  -19.17000        1.1326578E-18
  -19.02750        1.1331896E-18
  -18.88500        1.1327991E-18
  -18.74250        1.1320090E-18
  -18.60000        1.1314391E-18
  -18.45750        1.1316795E-18
  -18.31500        1.1331755E-18
  -18.17250        1.1361375E-18
  -18.03000        1.1404951E-18
  -17.88750        1.1459022E-18
  -17.74500        1.1517928E-18
  -17.60250        1.1574800E-18
  -17.46000        1.1622852E-18
  -17.31750        1.1656660E-18
  -17.17500        1.1673259E-18
  -17.03250        1.1672759E-18
  -16.89000        1.1658341E-18
  -16.74750        1.1635638E-18
  -16.60500        1.1611594E-18
  -16.46250        1.1593086E-18
  -16.32000        1.1585595E-18
  -16.17750        1.1592202E-18
  -16.03500        1.1613102E-18
  -15.89250        1.1645696E-18
  -15.75000        1.1685190E-18
  -15.60750        1.1725567E-18
  -15.46500        1.1760786E-18
  -15.32250        1.1785906E-18
  -15.18000        1.1798059E-18
  -15.03750        1.1796968E-18
  -14.89500        1.1784997E-18
  -14.75250        1.1766681E-18
  -14.61000        1.1747735E-18
  -14.46750        1.1733840E-18
  -14.32500        1.1729404E-18
  -14.18250        1.1736570E-18
  -14.04000        1.1754779E-18
  -13.89750        1.1780881E-18
  -13.75500        1.1809829E-18
  -13.61250        1.1835769E-18
  -13.47000        1.1853291E-18
  -13.32750        1.1858543E-18
  -13.18500        1.1850026E-18
  -13.04250        1.1828928E-18
  -12.90000        1.1798969E-18
  -12.75750        1.1765755E-18
  -12.61500        1.1735770E-18
  -12.47250        1.1715212E-18
  -12.33000        1.1708826E-18
  -12.18750        1.1718975E-18
  -12.04500        1.1745151E-18
  -11.90250        1.1784070E-18
  -11.76000        1.1830325E-18
  -11.61750        1.1877472E-18
  -11.47500        1.1919336E-18
  -11.33250        1.1951216E-18
  -11.19000        1.1970751E-18
  -11.04750        1.1978281E-18
  -10.90500        1.1976609E-18
  -10.76250        1.1970338E-18
  -10.62000        1.1964849E-18
  -10.47750        1.1965167E-18
  -10.33500        1.1974958E-18
  -10.19250        1.1995774E-18
  -10.05000        1.2026703E-18
  -9.907500        1.2064495E-18
  -9.765000        1.2104157E-18
  -9.622500        1.2139916E-18
  -9.480000        1.2166360E-18
  -9.337500        1.2179572E-18
  -9.195000        1.2177941E-18
  -9.052500        1.2162514E-18
  -8.910000        1.2136753E-18
  -8.767500        1.2105808E-18
  -8.625000        1.2075441E-18
  -8.482500        1.2050869E-18
  -8.340000        1.2035791E-18
  -8.197500        1.2031750E-18
  -8.055000        1.2037978E-18
  -7.912500        1.2051648E-18
  -7.770000        1.2068561E-18
  -7.627500        1.2084042E-18
  -7.485000        1.2093907E-18
  -7.342500        1.2095349E-18
  -7.200000        1.2087581E-18
  -7.057500        1.2072047E-18
  -6.915000        1.2052216E-18
  -6.772500        1.2032871E-18
  -6.630000        1.2019106E-18
  -6.487500        1.2015200E-18
  -6.345000        1.2023678E-18
  -6.202500        1.2044714E-18
  -6.060000        1.2076102E-18
  -5.917500        1.2113716E-18
  -5.775000        1.2152394E-18
  -5.632500        1.2186982E-18
  -5.490000        1.2213373E-18
  -5.347500        1.2229260E-18
  -5.205000        1.2234555E-18
  -5.062500        1.2231382E-18
  -4.920000        1.2223602E-18
  -4.777500        1.2216071E-18
  -4.635000        1.2213662E-18
  -4.492500        1.2220224E-18
  -4.350000        1.2237709E-18
  -4.207500        1.2265660E-18
  -4.065000        1.2301147E-18
  -3.922500        1.2339305E-18
  -3.780000        1.2374254E-18
  -3.637500        1.2400323E-18
  -3.495000        1.2413235E-18
  -3.352500        1.2410987E-18
  -3.210000        1.2394301E-18
  -3.067500        1.2366461E-18
  -2.925000        1.2332695E-18
  -2.782500        1.2299198E-18
  -2.640000        1.2271968E-18
  -2.497500        1.2255775E-18
  -2.355000        1.2253294E-18
  -2.212500        1.2264699E-18
  -2.070000        1.2287637E-18
  -1.927500        1.2317737E-18
  -1.785000        1.2349496E-18
  -1.642500        1.2377419E-18
  -1.500000        1.2397163E-18
  -1.357500        1.2406483E-18
  -1.215000        1.2405707E-18
  -1.072500        1.2397641E-18
 -0.9300000        1.2386946E-18
 -0.7875000        1.2379056E-18
 -0.6450000        1.2379017E-18
 -0.5025000        1.2390336E-18
 -0.3600000        1.2414249E-18
 -0.2175000        1.2449426E-18
 -7.5000003E-02    1.2492183E-18
  6.7500003E-02    1.2537190E-18
  0.2100000        1.2578445E-18
  0.3525000        1.2610417E-18
  0.4950000        1.2629134E-18
  0.6375000        1.2633015E-18
  0.7800000        1.2623222E-18
  0.9225000        1.2603529E-18
   1.065000        1.2579629E-18
   1.207500        1.2558001E-18
   1.350000        1.2544590E-18
   1.492500        1.2543584E-18
   1.635000        1.2556532E-18
   1.777500        1.2582051E-18
   1.920000        1.2616138E-18
   2.062500        1.2652990E-18
   2.205000        1.2686169E-18
   2.347500        1.2709869E-18
   2.490000        1.2720008E-18
   2.632500        1.2714993E-18
   2.775000        1.2696023E-18
   2.917500        1.2666887E-18
   3.060000        1.2633323E-18
   3.202500        1.2601953E-18
   3.345000        1.2579071E-18
   3.487500        1.2569445E-18
   3.630000        1.2575388E-18
   3.772500        1.2596342E-18
   3.915000        1.2629012E-18
   4.057500        1.2668119E-18
   4.200000        1.2707501E-18
   4.342500        1.2741410E-18
   4.485000        1.2765611E-18
   4.627500        1.2778117E-18
   4.770000        1.2779420E-18
   4.912500        1.2772204E-18
   5.055000        1.2760623E-18
   5.197500        1.2749384E-18
   5.340000        1.2742761E-18
   5.482500        1.2743690E-18
   5.625000        1.2753178E-18
   5.767500        1.2770044E-18
   5.910000        1.2791145E-18
   6.052500        1.2811984E-18
   6.195000        1.2827688E-18
   6.337500        1.2834100E-18
   6.480000        1.2828769E-18
   6.622500        1.2811634E-18
   6.765000        1.2785140E-18
   6.907500        1.2753811E-18
   7.050000        1.2723395E-18
   7.192500        1.2699711E-18
   7.335000        1.2687518E-18
   7.477500        1.2689611E-18
   7.620000        1.2706395E-18
   7.762500        1.2735823E-18
   7.905000        1.2773845E-18
   8.047500        1.2815197E-18
   8.190000        1.2854365E-18
   8.332500        1.2886617E-18
   8.475000        1.2908893E-18
   8.617500        1.2920372E-18
   8.760000        1.2922642E-18
   8.902500        1.2919329E-18
   9.045000        1.2915313E-18
   9.187500        1.2915626E-18
   9.330000        1.2924303E-18
   9.472500        1.2943448E-18
   9.615000        1.2972732E-18
   9.757500        1.3009408E-18
   9.900000        1.3048872E-18
   10.04250        1.3085579E-18
   10.18500        1.3114097E-18
   10.32750        1.3130182E-18
   10.47000        1.3131569E-18
   10.61250        1.3118388E-18
   10.75500        1.3093187E-18
   10.89750        1.3060512E-18
   11.04000        1.3026087E-18
   11.18250        1.2995784E-18
   11.32500        1.2974522E-18
   11.46750        1.2965334E-18
   11.61000        1.2968821E-18
   11.75250        1.2983091E-18
   11.89500        1.3004263E-18
   12.03750        1.3027367E-18
   12.18000        1.3047454E-18
   12.32250        1.3060668E-18
   12.46500        1.3065022E-18
   12.60750        1.3060750E-18
   12.75000        1.3050192E-18
   12.89250        1.3037278E-18
   13.03500        1.3026715E-18
   13.17750        1.3023032E-18
   13.32000        1.3029675E-18
   13.46250        1.3048271E-18
   13.60500        1.3078200E-18
   13.74750        1.3116628E-18
   13.89000        1.3158950E-18
   14.03250        1.3199662E-18
   14.17500        1.3233455E-18
   14.31750        1.3256307E-18
   14.46000        1.3266329E-18
   14.60250        1.3264128E-18
   14.74500        1.3252637E-18
   14.88750        1.3236468E-18
   15.03000        1.3220896E-18
   15.17250        1.3210816E-18
   15.31500        1.3209776E-18
   15.45750        1.3219346E-18
   15.60000        1.3238881E-18
   15.74250        1.3265663E-18
   15.88500        1.3295441E-18
   16.02750        1.3323222E-18
   16.17000        1.3344254E-18
   16.31250        1.3354995E-18
   16.45500        1.3353887E-18
   16.59750        1.3341809E-18
   16.74000        1.3321996E-18
   16.88250        1.3299469E-18
   17.02500        1.3280016E-18
   17.16750        1.3269014E-18
   17.31000        1.3270305E-18
   17.45250        1.3285394E-18
   17.59500        1.3313175E-18
   17.73750        1.3350154E-18
   17.88000        1.3391172E-18
   18.02250        1.3430353E-18
   18.16500        1.3462137E-18
   18.30750        1.3482273E-18
   18.45000        1.3488504E-18
   18.59250        1.3480947E-18
   18.73500        1.3462037E-18
   18.87750        1.3436093E-18
   19.02000        1.3408489E-18
   19.16250        1.3384631E-18
   19.30500        1.3368883E-18
   19.44750        1.3363714E-18
   19.59000        1.3369256E-18
   19.73250        1.3383346E-18
   19.87500        1.3402122E-18
   20.01750        1.3420932E-18
   20.16000        1.3435382E-18
   20.30250        1.3442281E-18
   20.44500        1.3440264E-18
   20.58750        1.3430016E-18
   20.73000        1.3414075E-18
   20.87250        1.3396284E-18
   21.01500        1.3381028E-18
   21.15750        1.3372337E-18
   21.30000        1.3373105E-18
   21.44250        1.3384450E-18
   21.58500        1.3405476E-18
   21.72750        1.3433413E-18
   21.87000        1.3464171E-18
   22.01250        1.3493238E-18
   22.15500        1.3516685E-18
   22.29750        1.3532043E-18
   22.44000        1.3538861E-18
   22.58250        1.3538786E-18
   22.72500        1.3535188E-18
   22.86750        1.3532382E-18
   23.01000        1.3534686E-18
   23.15250        1.3545496E-18
   23.29500        1.3566545E-18
   23.43750        1.3597507E-18
   23.58000        1.3635975E-18
   23.72250        1.3677804E-18
   23.86500        1.3717839E-18
   24.00750        1.3750825E-18
   24.15000        1.3772437E-18
   24.29250        1.3780151E-18
   24.43500        1.3773811E-18
   24.57750        1.3755730E-18
   24.72000        1.3730241E-18
   24.86250        1.3702811E-18
   25.00500        1.3678937E-18
   25.14750        1.3663009E-18
   25.29000        1.3657487E-18
   25.43250        1.3662500E-18
   25.57500        1.3675953E-18
   25.71750        1.3694082E-18
   25.86000        1.3712272E-18
   26.00250        1.3726045E-18
   26.14500        1.3731953E-18
   26.28750        1.3728284E-18
   26.43000        1.3715479E-18
   26.57250        1.3696135E-18
   26.71500        1.3674580E-18
   26.85750        1.3656098E-18
   27.00000        1.3645864E-18
   27.14250        1.3647839E-18
   27.28500        1.3663896E-18
   27.42750        1.3693331E-18
   27.57000        1.3732990E-18
   27.71250        1.3777867E-18
   27.85500        1.3822137E-18
   27.99750        1.3860321E-18
   28.14000        1.3888305E-18
   28.28250        1.3904058E-18
   28.42500        1.3907878E-18
   28.56750        1.3902184E-18
   28.71000        1.3890949E-18
   28.85250        1.3878876E-18
   28.99500        1.3870435E-18
   29.13750        1.3868997E-18
   29.28000        1.3876086E-18
   29.42250        1.3891057E-18
   29.56500        1.3911161E-18
   29.70750        1.3932087E-18
   29.85000        1.3948895E-18
   29.99250        1.3957142E-18
   30.13500        1.3953928E-18
   30.27750        1.3938646E-18
   30.42000        1.3913222E-18
   30.56250        1.3881790E-18
   30.70500        1.3849903E-18
   30.84750        1.3823461E-18
   30.99000        1.3807571E-18
   31.13250        1.3805612E-18
   31.27500        1.3818614E-18
   31.41750        1.3845043E-18
   31.56000        1.3881076E-18
   31.70250        1.3921266E-18
   31.84500        1.3959502E-18
   31.98750        1.3990135E-18
   32.13000        1.4009046E-18
   32.27250        1.4014473E-18
   32.41500        1.4007379E-18
   32.55750        1.3991267E-18
   32.70000        1.3971481E-18
   32.84250        1.3954127E-18
   32.98500        1.3944853E-18
   33.12750        1.3947755E-18
   33.27000        1.3964613E-18
   33.41250        1.3994623E-18
   33.55500        1.4034605E-18
   33.69750        1.4079641E-18
   33.84000        1.4123964E-18
   33.98250        1.4161999E-18
   34.12500        1.4189311E-18
   34.26750        1.4203381E-18
   34.41000        1.4204010E-18
   34.55250        1.4193318E-18
   34.69500        1.4175256E-18
   34.83750        1.4154782E-18
   34.98000        1.4136798E-18
   35.12250        1.4125109E-18
   35.26500        1.4121677E-18
   35.40750        1.4126273E-18
   35.55000        1.4136663E-18
   35.69250        1.4149213E-18
   35.83500        1.4159767E-18
   35.97750        1.4164569E-18
   36.12000        1.4161094E-18
   36.26250        1.4148576E-18
   36.40500        1.4128200E-18
   36.54750        1.4102967E-18
   36.69000        1.4077205E-18
   36.83250        1.4055855E-18
   36.97500        1.4043608E-18
   37.11750        1.4043982E-18
   37.26000        1.4058609E-18
   37.40250        1.4086841E-18
   37.54500        1.4125828E-18
   37.68750        1.4171007E-18
   37.83000        1.4217033E-18
   37.97250        1.4258816E-18
   38.11500        1.4292463E-18
   38.25750        1.4315961E-18
   38.40000        1.4329363E-18
   38.54250        1.4334579E-18
   38.68500        1.4334788E-18
   38.82750        1.4333700E-18
   38.97000        1.4334748E-18
   39.11250        1.4340416E-18
   39.25500        1.4351742E-18
   39.39750        1.4368130E-18
   39.54000        1.4387415E-18
   39.68250        1.4406325E-18
   39.82500        1.4421147E-18
   39.96750        1.4428590E-18
   40.11000        1.4426600E-18
   40.25250        1.4414968E-18
   40.39500        1.4395522E-18
   40.53750        1.4371874E-18
   40.68000        1.4348702E-18
   40.82250        1.4330812E-18
   40.96500        1.4322147E-18
   41.10750        1.4325014E-18
   41.25000        1.4339653E-18
   41.39250        1.4364248E-18
   41.53500        1.4395291E-18
   41.67750        1.4428243E-18
   41.82000        1.4458375E-18
   41.96250        1.4481564E-18
   42.10500        1.4495034E-18
   42.24750        1.4497816E-18
   42.39000        1.4490898E-18
   42.53250        1.4476988E-18
   42.67500        1.4459913E-18
   42.81750        1.4443776E-18
   42.96000        1.4432018E-18
   43.10250        1.4426675E-18
   43.24500        1.4427946E-18
   43.38750        1.4434236E-18
   43.53000        1.4442611E-18
   43.67250        1.4449564E-18
   43.81500        1.4451881E-18
   43.95750        1.4447399E-18
   44.10000        1.4435540E-18
   44.24250        1.4417498E-18
   44.38500        1.4396045E-18
   44.52750        1.4375087E-18
   44.67000        1.4358938E-18
   44.81250        1.4351511E-18
   44.95500        1.4355505E-18
   45.09750        1.4371800E-18
   45.24000        1.4399162E-18
   45.38250        1.4434396E-18
   45.52500        1.4472918E-18
   45.66750        1.4509649E-18
   45.81000        1.4540064E-18
   45.95250        1.4561078E-18
   46.09500        1.4571606E-18
   46.23750        1.4572703E-18
   46.38000        1.4567236E-18
   46.52250        1.4559207E-18
   46.66500        1.4552938E-18
   46.80750        1.4552234E-18
   46.95000        1.4559682E-18
   47.09250        1.4576205E-18
   47.23500        1.4600900E-18
   47.37750        1.4631176E-18
   47.52000        1.4663238E-18
   47.66250        1.4692799E-18
   47.80500        1.4715978E-18
   47.94750        1.4730132E-18
   48.09000        1.4734445E-18
   48.23250        1.4730113E-18
   48.37500        1.4720084E-18
   48.51750        1.4708361E-18
   48.66000        1.4699053E-18
   48.80250        1.4695462E-18
   48.94500        1.4699384E-18
   49.08750        1.4710753E-18
   49.23000        1.4727746E-18
   49.37250        1.4747182E-18
   49.51500        1.4765154E-18
   49.65750        1.4777768E-18
   49.80000        1.4781861E-18
   49.94250        1.4775620E-18
   50.08500        1.4758987E-18
   50.22750        1.4733807E-18
   50.37000        1.4703602E-18
   50.51250        1.4673020E-18
   50.65500        1.4646966E-18
   50.79750        1.4629632E-18
   50.94000        1.4623637E-18
   51.08250        1.4629479E-18
   51.22500        1.4645459E-18
   51.36750        1.4668089E-18
   51.51000        1.4692863E-18
   51.65250        1.4715174E-18
   51.79500        1.4731211E-18
   51.93750        1.4738636E-18
   52.08000        1.4736910E-18
   52.22250        1.4727373E-18
   52.36500        1.4712929E-18
   52.50750        1.4697540E-18
   52.65000        1.4685498E-18
   52.79250        1.4680622E-18
   52.93500        1.4685478E-18
   53.07750        1.4700832E-18
   53.22000        1.4725394E-18
   53.36250        1.4756047E-18
   53.50500        1.4788453E-18
   53.64750        1.4817955E-18
   53.79000        1.4840557E-18
   53.93250        1.4853731E-18
   54.07500        1.4856893E-18
   54.21750        1.4851448E-18
   54.36000        1.4840459E-18
   54.50250        1.4828014E-18
   54.64500        1.4818432E-18
   54.78750        1.4815487E-18
   54.93000        1.4821688E-18
   55.07250        1.4837789E-18
   55.21500        1.4862611E-18
   55.35750        1.4893150E-18
   55.50000        1.4925112E-18
   55.64250        1.4953748E-18
   55.78500        1.4974794E-18
   55.92750        1.4985403E-18
   56.07000        1.4984730E-18
   56.21250        1.4974113E-18
   56.35500        1.4956749E-18
   56.49750        1.4936976E-18
   56.64000        1.4919377E-18
   56.78250        1.4907837E-18
   56.92500        1.4904867E-18
   57.06750        1.4911172E-18
   57.21000        1.4925599E-18
   57.35250        1.4945358E-18
   57.49500        1.4966549E-18
   57.63750        1.4984889E-18
   57.78000        1.4996530E-18
   57.92250        1.4998919E-18
   58.06500        1.4991397E-18
   58.20750        1.4975489E-18
   58.35000        1.4954677E-18
   58.49250        1.4933732E-18
   58.63500        1.4917685E-18
   58.77750        1.4910735E-18
   58.92000        1.4915339E-18
   59.06250        1.4931727E-18
   59.20500        1.4957906E-18
   59.34750        1.4990157E-18
   59.49000        1.5023767E-18
   59.63250        1.5053990E-18
   59.77500        1.5076850E-18
   59.91750        1.5089829E-18
   60.06000        1.5092295E-18
   60.20250        1.5085633E-18
   60.34500        1.5073022E-18
   60.48750        1.5058891E-18
   60.63000        1.5048058E-18
   60.77250        1.5044745E-18
   60.91500        1.5051587E-18
   61.05750        1.5069012E-18
   61.20000        1.5095050E-18
   61.34250        1.5125737E-18
   61.48500        1.5155973E-18
   61.62750        1.5180649E-18
   61.77000        1.5195706E-18
   61.91250        1.5198926E-18
   62.05500        1.5190303E-18
   62.19750        1.5171973E-18
   62.34000        1.5147740E-18
   62.48250        1.5122377E-18
   62.62500        1.5100799E-18
   62.76750        1.5087206E-18
   62.91000        1.5084327E-18
   63.05250        1.5092901E-18
   63.19500        1.5111465E-18
   63.33750        1.5136595E-18
   63.48000        1.5163555E-18
   63.62250        1.5187274E-18
   63.76500        1.5203420E-18
   63.90750        1.5209325E-18
   64.05000        1.5204519E-18
   64.19250        1.5190759E-18
   64.33500        1.5171605E-18
   64.47750        1.5151617E-18
   64.62000        1.5135446E-18
   64.76250        1.5127000E-18
   64.90500        1.5128804E-18
   65.04750        1.5141596E-18
   65.19000        1.5164277E-18
   65.33250        1.5194112E-18
   65.47500        1.5227204E-18
   65.61750        1.5259220E-18
   65.76000        1.5286203E-18
   65.90250        1.5305346E-18
   66.04500        1.5315565E-18
   66.18750        1.5317652E-18
   66.33000        1.5314005E-18
   66.47250        1.5307966E-18
   66.61500        1.5302995E-18
   66.75750        1.5301830E-18
   66.90000        1.5305922E-18
   67.04250        1.5315200E-18
   67.18500        1.5328179E-18
   67.32750        1.5342333E-18
   67.47000        1.5354620E-18
   67.61250        1.5362074E-18
   67.75500        1.5362365E-18
   67.89750        1.5354291E-18
   68.04000        1.5338129E-18
   68.18250        1.5315744E-18
   68.32500        1.5290404E-18
   68.46750        1.5266232E-18
   68.61000        1.5247410E-18
   68.75250        1.5237281E-18
   68.89500        1.5237619E-18
   69.03750        1.5248246E-18
   69.18000        1.5267077E-18
   69.32250        1.5290638E-18
   69.46500        1.5314821E-18
   69.60750        1.5335723E-18
   69.75000        1.5350320E-18
   69.89250        1.5356940E-18
   70.03500        1.5355441E-18
   70.17750        1.5347171E-18
   70.32000        1.5334721E-18
   70.46250        1.5321519E-18
   70.60500        1.5311239E-18
   70.74750        1.5307110E-18
   70.89000        1.5311236E-18
   71.03250        1.5324065E-18
   71.17500        1.5344194E-18
   71.31750        1.5368626E-18
   71.46000        1.5393396E-18
   71.60250        1.5414503E-18
   71.74500        1.5428784E-18
   71.88750        1.5434595E-18
   72.03000        1.5432049E-18
   72.17250        1.5422910E-18
   72.31500        1.5410105E-18
   72.45750        1.5397131E-18
   72.60000        1.5387374E-18
   72.74250        1.5383576E-18
   72.88500        1.5387384E-18
   73.02750        1.5399094E-18
   73.17000        1.5417557E-18
   73.31250        1.5440354E-18
   73.45500        1.5464241E-18
   73.59750        1.5485811E-18
   73.74000        1.5502295E-18
   73.88250        1.5512198E-18
   74.02500        1.5515682E-18
   74.16750        1.5514503E-18
   74.31000        1.5511527E-18
   74.45250        1.5509965E-18
   74.59500        1.5512566E-18
   74.73750        1.5520933E-18
   74.88000        1.5535195E-18
   75.02250        1.5553966E-18
   75.16500        1.5574652E-18
   75.30750        1.5593919E-18
   75.45000        1.5608303E-18
   75.59250        1.5614861E-18
   75.73500        1.5611779E-18
   75.87750        1.5598828E-18
   76.02000        1.5577615E-18
   76.16250        1.5551432E-18
   76.30500        1.5524745E-18
   76.44750        1.5502314E-18
   76.59000        1.5488202E-18
   76.73250        1.5484873E-18
   76.87500        1.5492647E-18
   77.01750        1.5509662E-18
   77.16000        1.5532320E-18
   77.30250        1.5556079E-18
   77.44500        1.5576378E-18
   77.58750        1.5589528E-18
   77.73000        1.5593322E-18
   77.87250        1.5587417E-18
   78.01500        1.5573399E-18
   78.15750        1.5554563E-18
   78.30000        1.5535370E-18
   78.44250        1.5520701E-18
   78.58500        1.5514918E-18
   78.72750        1.5520966E-18
   78.87000        1.5539652E-18
   79.01250        1.5569410E-18
   79.15500        1.5606581E-18
   79.29750        1.5646207E-18
   79.44000        1.5683132E-18
   79.58250        1.5713106E-18
   79.72500        1.5733612E-18
   79.86750        1.5744242E-18
   80.01000        1.5746577E-18
   80.15250        1.5743670E-18
   80.29500        1.5739301E-18
   80.43750        1.5737202E-18
   80.58000        1.5740298E-18
   80.72250        1.5750139E-18
   80.86500        1.5766500E-18
   81.00750        1.5787321E-18
   81.15000        1.5808941E-18
   81.29250        1.5826757E-18
   81.43500        1.5836139E-18
   81.57750        1.5833514E-18
   81.72000        1.5817263E-18
   81.86250        1.5788236E-18
   82.00500        1.5749682E-18
   82.14750        1.5706626E-18
   82.29000        1.5664846E-18
   82.43250        1.5629740E-18
   82.57500        1.5605344E-18
   82.71750        1.5593700E-18
   82.86000        1.5594658E-18
   83.00250        1.5606060E-18
   83.14500        1.5624234E-18
   83.28750        1.5644693E-18
   83.43000        1.5662939E-18
   83.57250        1.5675271E-18
   83.71500        1.5679505E-18
   83.85750        1.5675425E-18
   84.00000        1.5664885E-18
   84.14250        1.5651381E-18
   84.28500        1.5639290E-18
   84.42750        1.5632823E-18
   84.57000        1.5635024E-18
   84.71250        1.5647069E-18
   84.85500        1.5668023E-18
   84.99750        1.5695063E-18
   85.14000        1.5724147E-18
   85.28250        1.5750824E-18
   85.42500        1.5771073E-18
   85.56750        1.5781986E-18
   85.71000        1.5782246E-18
   85.85250        1.5772334E-18
   85.99500        1.5754488E-18
   86.13750        1.5732364E-18
   86.28000        1.5710418E-18
   86.42250        1.5693089E-18
   86.56500        1.5683913E-18
   86.70750        1.5684828E-18
   86.85000        1.5695751E-18
   86.99250        1.5714687E-18
   87.13500        1.5738245E-18
   87.27750        1.5762487E-18
   87.42000        1.5783834E-18
   87.56250        1.5799768E-18
   87.70500        1.5809255E-18
   87.84750        1.5812796E-18
   87.99000        1.5812190E-18
   88.13250        1.5810115E-18
   88.27500        1.5809611E-18
   88.41750        1.5813531E-18
   88.56000        1.5823999E-18
   88.70250        1.5841907E-18
   88.84500        1.5866619E-18
   88.98750        1.5895923E-18
   89.13000        1.5926373E-18
   89.27250        1.5953999E-18
   89.41500        1.5975199E-18
   89.55750        1.5987612E-18
   89.70000        1.5990742E-18
   89.84250        1.5986073E-18
   89.98500        1.5976733E-18
   90.12750        1.5966755E-18
   90.27000        1.5960261E-18
   90.41250        1.5960602E-18
   90.55500        1.5969809E-18
   90.69750        1.5988273E-18
   90.84000        1.6014671E-18
   90.98250        1.6046125E-18
   91.12500        1.6078614E-18
   91.26750        1.6107547E-18
   91.41000        1.6128550E-18
   91.55250        1.6138274E-18
   91.69500        1.6135202E-18
   91.83750        1.6120030E-18
   91.98000        1.6095652E-18
   92.12250        1.6066619E-18
   92.26500        1.6038186E-18
   92.40750        1.6015217E-18
   92.55000        1.6001212E-18
   92.69250        1.5997723E-18
   92.83500        1.6004187E-18
   92.97750        1.6018246E-18
   93.12000        1.6036326E-18
   93.26250        1.6054394E-18
   93.40500        1.6068706E-18
   93.54750        1.6076517E-18
   93.69000        1.6076571E-18
   93.83250        1.6069408E-18
   93.97500        1.6057319E-18
   94.11750        1.6043948E-18
   94.26000        1.6033545E-18
   94.40250        1.6030025E-18
   94.54500        1.6036023E-18
   94.68750        1.6052216E-18
   94.83000        1.6077109E-18
   94.97250        1.6107349E-18
   95.11500        1.6138459E-18
   95.25750        1.6165802E-18
   95.40000        1.6185537E-18
   95.54250        1.6195360E-18
   95.68500        1.6194880E-18
   95.82750        1.6185653E-18
   95.97000        1.6170865E-18
   96.11250        1.6154759E-18
   96.25500        1.6141858E-18
   96.39750        1.6136094E-18
   96.54000        1.6139973E-18
   96.68250        1.6153954E-18
   96.82500        1.6176254E-18
   96.96750        1.6203128E-18
   97.11000        1.6229637E-18
   97.25250        1.6250734E-18
   97.39500        1.6262398E-18
   97.53750        1.6262464E-18
   97.68000        1.6251051E-18
   97.82250        1.6230442E-18
   97.96500        1.6204485E-18
   98.10750        1.6177771E-18
   98.25000        1.6154761E-18
   98.39250        1.6138971E-18
   98.53500        1.6132377E-18
   98.67750        1.6135083E-18
   98.82000        1.6145248E-18
   98.96250        1.6159360E-18
   99.10500        1.6172830E-18
   99.24750        1.6180886E-18
   99.39000        1.6179601E-18