  -30.00000        9.7844703E-19
  -29.85750        9.8019982E-19
  -29.71500        9.8339822E-19
  -29.57250        9.8751437E-19
  -29.43000        9.9190650E-19
  -29.28750        9.9594883E-19
  -29.14500        9.9914960E-19
  -29.00250        1.0012399E-18
  -28.86000        1.0022160E-18
  -28.71750        1.0023277E-18
  -28.57500        1.0020214E-18
  -28.43250        1.0018471E-18
  -28.29000        1.0023451E-18
  -28.14750        1.0039344E-18
  -28.00500        1.0068204E-18
  -27.86250        1.0109460E-18
  -27.72000        1.0159928E-18
  -27.57750        1.0214395E-18
  -27.43500        1.0266651E-18
  -27.29250        1.0310784E-18
  -27.15000        1.0342393E-18
  -27.00750        1.0359524E-18
  -26.86500        1.0363035E-18
  -26.72250        1.0356391E-18
  -26.58000        1.0344932E-18
  -26.43750        1.0334790E-18
  -26.29500        1.0331682E-18
  -26.15250        1.0339820E-18
  -26.01000        1.0361153E-18
  -25.86750        1.0395016E-18
  -25.72500        1.0438266E-18
  -25.58250        1.0485893E-18
  -25.44000        1.0532002E-18
  -25.29750        1.0570977E-18
  -25.15500        1.0598665E-18
  -25.01250        1.0613214E-18
  -24.87000        1.0615517E-18
  -24.72750        1.0609009E-18
  -24.58500        1.0598950E-18
  -24.44250        1.0591287E-18
  -24.30000        1.0591389E-18
  -24.15750        1.0602954E-18
  -24.01500        1.0627261E-18
  -23.87250        1.0662969E-18
  -23.73000        1.0706441E-18
  -23.58750        1.0752504E-18
  -23.44500        1.0795474E-18
  -23.30250        1.0830276E-18
  -23.16000        1.0853439E-18
  -23.01750        1.0863793E-18
  -22.87500        1.0862714E-18
  -22.73250        1.0853891E-18
  -22.59000        1.0842619E-18
  -22.44750        1.0834706E-18
  -22.30500        1.0835258E-18
  -22.16250        1.0847561E-18
  -22.02000        1.0872397E-18
  -21.87750        1.0907859E-18
  -21.73500        1.0949786E-18
  -21.59250        1.0992681E-18
  -21.45000        1.1030885E-18
  -21.30750        1.1059738E-18
  -21.16500        1.1076545E-18
  -21.02250        1.1081074E-18
  -20.88000        1.1075613E-18
  -20.73750        1.1064502E-18
  -20.59500        1.1053293E-18
  -20.45250        1.1047666E-18
  -20.31000        1.1052327E-18
  -20.16750        1.1069990E-18
  -20.02500        1.1100804E-18
  -19.88250        1.1142245E-18
  -19.74000        1.1189591E-18
  -19.59750        1.1236868E-18
  -19.45500        1.1278151E-18
  -19.31250        1.1308824E-18
  -19.17000        1.1326566E-18
  -19.02750        1.1331879E-18
  -18.88500        1.1327966E-18
  -18.74250        1.1320054E-18
  -18.60000        1.1314338E-18
  -18.45750        1.1316724E-18
  -18.31500        1.1331670E-18
  -18.17250        1.1361280E-18
  -18.03000        1.1404851E-18
  -17.88750        1.1458919E-18
  -17.74500        1.1517827E-18
  -17.60250        1.1574718E-18
  -17.46000        1.1622786E-18
  -17.31750        1.1656620E-18
  -17.17500        1.1673241E-18
  -17.03250        1.1672757E-18
  -16.89000        1.1658353E-18
  -16.74750        1.1635658E-18
  -16.60500        1.1611620E-18
  -16.46250        1.1593112E-18
  -16.32000        1.1585618E-18
  -16.17750        1.1592218E-18
  -16.03500        1.1613113E-18
  -15.89250        1.1645708E-18
  -15.75000        1.1685197E-18
  -15.60750        1.1725576E-18
  -15.46500        1.1760796E-18
  -15.32250        1.1785927E-18
  -15.18000        1.1798088E-18
  -15.03750        1.1797002E-18
  -14.89500        1.1785035E-18
  -14.75250        1.1766715E-18
  -14.61000        1.1747752E-18
  -14.46750        1.1733849E-18
  -14.32500        1.1729401E-18
  -14.18250        1.1736573E-18
  -14.04000        1.1754800E-18
  -13.89750        1.1780918E-18
  -13.75500        1.1809886E-18
  -13.61250        1.1835847E-18
  -13.47000        1.1853381E-18
  -13.32750        1.1858640E-18
  -13.18500        1.1850112E-18
  -13.04250        1.1828989E-18
  -12.90000        1.1798985E-18
  -12.75750        1.1765700E-18
  -12.61500        1.1735627E-18
  -12.47250        1.1714985E-18
  -12.33000        1.1708519E-18
  -12.18750        1.1718593E-18
  -12.04500        1.1744714E-18
  -11.90250        1.1783598E-18
  -11.76000        1.1829836E-18
  -11.61750        1.1876981E-18
  -11.47500        1.1918845E-18
  -11.33250        1.1950721E-18
  -11.19000        1.1970245E-18
  -11.04750        1.1977744E-18
  -10.90500        1.1976035E-18
  -10.76250        1.1969730E-18
  -10.62000        1.1964208E-18
  -10.47750        1.1964509E-18
  -10.33500        1.1974298E-18
  -10.19250        1.1995140E-18
  -10.05000        1.2026119E-18
  -9.907500        1.2063983E-18
  -9.765000        1.2103730E-18
  -9.622500        1.2139568E-18
  -9.480000        1.2166084E-18
  -9.337500        1.2179337E-18
  -9.195000        1.2177714E-18
  -9.052500        1.2162260E-18
  -8.910000        1.2136443E-18
  -8.767500        1.2105425E-18
  -8.625000        1.2074978E-18
  -8.482500        1.2050338E-18
  -8.340000        1.2035208E-18
  -8.197500        1.2031137E-18
  -8.055000        1.2037345E-18
  -7.912500        1.2051014E-18
  -7.770000        1.2067938E-18
  -7.627500        1.2083423E-18
  -7.485000        1.2093277E-18
  -7.342500        1.2094698E-18
  -7.200000        1.2086882E-18
  -7.057500        1.2071296E-18
  -6.915000        1.2051409E-18
  -6.772500        1.2032017E-18
  -6.630000        1.2018231E-18
  -6.487500        1.2014339E-18
  -6.345000        1.2022865E-18
  -6.202500        1.2043983E-18
  -6.060000        1.2075477E-18
  -5.917500        1.2113202E-18
  -5.775000        1.2151980E-18
  -5.632500        1.2186648E-18
  -5.490000        1.2213092E-18
  -5.347500        1.2229008E-18
  -5.205000        1.2234319E-18
  -5.062500        1.2231138E-18
  -4.920000        1.2223348E-18
  -4.777500        1.2215830E-18
  -4.635000        1.2213458E-18
  -4.492500        1.2220092E-18
  -4.350000        1.2237682E-18
  -4.207500        1.2265755E-18
  -4.065000        1.2301365E-18
  -3.922500        1.2339627E-18
  -3.780000        1.2374652E-18
  -3.637500        1.2400761E-18
  -3.495000        1.2413666E-18
  -3.352500        1.2411380E-18
  -3.210000        1.2394628E-18
  -3.067500        1.2366720E-18
  -2.925000        1.2332904E-18
  -2.782500        1.2299368E-18
  -2.640000        1.2272130E-18
  -2.497500        1.2255950E-18
  -2.355000        1.2253509E-18
  -2.212500        1.2264949E-18
  -2.070000        1.2287915E-18
  -1.927500        1.2318022E-18
  -1.785000        1.2349763E-18
  -1.642500        1.2377638E-18
  -1.500000        1.2397321E-18
  -1.357500        1.2406578E-18
  -1.215000        1.2405755E-18
  -1.072500        1.2397681E-18
 -0.9300000        1.2387016E-18
 -0.7875000        1.2379217E-18
 -0.6450000        1.2379298E-18
 -0.5025000        1.2390771E-18
 -0.3600000        1.2414838E-18
 -0.2175000        1.2450145E-18
 -7.5000003E-02    1.2492993E-18
  6.7500003E-02    1.2538037E-18
  0.2100000        1.2579272E-18
  0.3525000        1.2611185E-18
  0.4950000        1.2629820E-18
  0.6375000        1.2633602E-18
  0.7800000        1.2623723E-18
  0.9225000        1.2603982E-18
   1.065000        1.2580071E-18
   1.207500        1.2558465E-18
   1.350000        1.2545106E-18
   1.492500        1.2544157E-18
   1.635000        1.2557158E-18
   1.777500        1.2582710E-18
   1.920000        1.2616789E-18
   2.062500        1.2653595E-18
   2.205000        1.2686702E-18
   2.347500        1.2710323E-18
   2.490000        1.2720389E-18
   2.632500        1.2715324E-18
   2.775000        1.2696348E-18
   2.917500        1.2667255E-18
   3.060000        1.2633772E-18
   3.202500        1.2602503E-18
   3.345000        1.2579727E-18
   3.487500        1.2570187E-18
   3.630000        1.2576196E-18
   3.772500        1.2597169E-18
   3.915000        1.2629820E-18
   4.057500        1.2668865E-18
   4.200000        1.2708167E-18
   4.342500        1.2741990E-18
   4.485000        1.2766116E-18
   4.627500        1.2778581E-18
   4.770000        1.2779874E-18
   4.912500        1.2772667E-18
   5.055000        1.2761111E-18
   5.197500        1.2749897E-18
   5.340000        1.2743277E-18
   5.482500        1.2744172E-18
   5.625000        1.2753582E-18
   5.767500        1.2770336E-18
   5.910000        1.2791299E-18
   6.052500        1.2812000E-18
   6.195000        1.2827582E-18
   6.337500        1.2833909E-18
   6.480000        1.2828546E-18
   6.622500        1.2811420E-18
   6.765000        1.2784967E-18
   6.907500        1.2753697E-18
   7.050000        1.2723344E-18
   7.192500        1.2699700E-18
   7.335000        1.2687494E-18
   7.477500        1.2689539E-18
   7.620000        1.2706227E-18
   7.762500        1.2735530E-18
   7.905000        1.2773422E-18
   8.047500        1.2814656E-18
   8.190000        1.2853739E-18
   8.332500        1.2885952E-18
   8.475000        1.2908232E-18
   8.617500        1.2919746E-18
   8.760000        1.2922064E-18
   8.902500        1.2918795E-18
   9.045000        1.2914800E-18
   9.187500        1.2915101E-18
   9.330000        1.2923734E-18
   9.472500        1.2942813E-18
   9.615000        1.2972018E-18
   9.757500        1.3008625E-18
   9.900000        1.3048047E-18
   10.04250        1.3084745E-18
   10.18500        1.3113304E-18
   10.32750        1.3129471E-18
   10.47000        1.3130949E-18
   10.61250        1.3117855E-18
   10.75500        1.3092711E-18
   10.89750        1.3060036E-18
   11.04000        1.3025552E-18
   11.18250        1.2995127E-18
   11.32500        1.2973700E-18
   11.46750        1.2964331E-18
   11.61000        1.2967654E-18
   11.75250        1.2981811E-18
   11.89500        1.3002927E-18
   12.03750        1.3026046E-18
   12.18000        1.3046209E-18
   12.32250        1.3059534E-18
   12.46500        1.3064011E-18
   12.60750        1.3059846E-18
   12.75000        1.3049361E-18
   12.89250        1.3036464E-18
   13.03500        1.3025867E-18
   13.17750        1.3022105E-18
   13.32000        1.3028662E-18
   13.46250        1.3047181E-18
   13.60500        1.3077080E-18
   13.74750        1.3115538E-18
   13.89000        1.3157963E-18
   14.03250        1.3198843E-18
   14.17500        1.3232846E-18
   14.31750        1.3255914E-18
   14.46000        1.3266122E-18
   14.60250        1.3264052E-18
   14.74500        1.3252622E-18
   14.88750        1.3236438E-18
   15.03000        1.3220793E-18
   15.17250        1.3210604E-18
   15.31500        1.3209449E-18
   15.45750        1.3218941E-18
   15.60000        1.3238444E-18
   15.74250        1.3265263E-18
   15.88500        1.3295140E-18
   16.02750        1.3323055E-18
   16.17000        1.3344229E-18
   16.31250        1.3355079E-18
   16.45500        1.3354021E-18
   16.59750        1.3341927E-18
   16.74000        1.3322027E-18
   16.88250        1.3299358E-18
   17.02500        1.3279748E-18
   17.16750        1.3268608E-18
   17.31000        1.3269810E-18
   17.45250        1.3284876E-18
   17.59500        1.3312716E-18
   17.73750        1.3349833E-18
   17.88000        1.3391037E-18
   18.02250        1.3430414E-18
   18.16500        1.3462373E-18
   18.30750        1.3482629E-18
   18.45000        1.3488899E-18
   18.59250        1.3481296E-18
   18.73500        1.3462258E-18
   18.87750        1.3436131E-18
   19.02000        1.3408332E-18
   19.16250        1.3384309E-18
   19.30500        1.3368461E-18
   19.44750        1.3363275E-18
   19.59000        1.3368880E-18
   19.73250        1.3383098E-18
   19.87500        1.3402030E-18
   20.01750        1.3420987E-18
   20.16000        1.3435541E-18
   20.30250        1.3442476E-18
   20.44500        1.3440424E-18
   20.58750        1.3430064E-18
   20.73000        1.3413971E-18
   20.87250        1.3396021E-18
   21.01500        1.3380630E-18
   21.15750        1.3371865E-18
   21.30000        1.3372637E-18
   21.44250        1.3384079E-18
   21.58500        1.3405268E-18
   21.72750        1.3433406E-18
   21.87000        1.3464366E-18
   22.01250        1.3493603E-18
   22.15500        1.3517145E-18
   22.29750        1.3532514E-18
   22.44000        1.3539256E-18
   22.58250        1.3539051E-18
   22.72500        1.3535298E-18
   22.86750        1.3532352E-18
   23.01000        1.3534570E-18
   23.15250        1.3545372E-18
   23.29500        1.3566491E-18
   23.43750        1.3597592E-18
   23.58000        1.3636239E-18
   23.72250        1.3678254E-18
   23.86500        1.3718446E-18
   24.00750        1.3751534E-18
   24.15000        1.3773162E-18
   24.29250        1.3780805E-18
   24.43500        1.3774313E-18
   24.57750        1.3756023E-18
   24.72000        1.3730304E-18
   24.86250        1.3702663E-18
   25.00500        1.3678625E-18
   25.14750        1.3662593E-18
   25.29000        1.3657036E-18
   25.43250        1.3662069E-18
   25.57500        1.3675574E-18
   25.71750        1.3693757E-18
   25.86000        1.3711988E-18
   26.00250        1.3725764E-18
   26.14500        1.3731624E-18
   26.28750        1.3727870E-18
   26.43000        1.3714959E-18
   26.57250        1.3695499E-18
   26.71500        1.3673860E-18
   26.85750        1.3655348E-18
   27.00000        1.3645145E-18
   27.14250        1.3647225E-18
   27.28500        1.3663451E-18
   27.42750        1.3693111E-18
   27.57000        1.3733010E-18
   27.71250        1.3778111E-18
   27.85500        1.3822565E-18
   27.99750        1.3860864E-18
   28.14000        1.3888899E-18
   28.28250        1.3904635E-18
   28.42500        1.3908383E-18
   28.56750        1.3902587E-18
   28.71000        1.3891243E-18
   28.85250        1.3879072E-18
   28.99500        1.3870566E-18
   29.13750        1.3869093E-18
   29.28000        1.3876184E-18
   29.42250        1.3891195E-18
   29.56500        1.3911357E-18
   29.70750        1.3932343E-18
   29.85000        1.3949197E-18
   29.99250        1.3957456E-18
   30.13500        1.3954216E-18
   30.27750        1.3938882E-18
   30.42000        1.3913389E-18
   30.56250        1.3881889E-18
   30.70500        1.3849961E-18
   30.84750        1.3823512E-18
   30.99000        1.3807670E-18
   31.13250        1.3805808E-18
   31.27500        1.3818936E-18
   31.41750        1.3845507E-18
   31.56000        1.3881683E-18
   31.70250        1.3921985E-18
   31.84500        1.3960281E-18
   31.98750        1.3990900E-18
   32.13000        1.4009723E-18
   32.27250        1.4014988E-18
   32.41500        1.4007669E-18
   32.55750        1.3991294E-18
   32.70000        1.3971236E-18
   32.84250        1.3953639E-18
   32.98500        1.3944174E-18
   33.12750        1.3946952E-18
   33.27000        1.3963746E-18
   33.41250        1.3993740E-18
   33.55500        1.4033743E-18
   33.69750        1.4078800E-18
   33.84000        1.4123135E-18
   33.98250        1.4161153E-18
   34.12500        1.4188424E-18
   34.26750        1.4202417E-18
   34.41000        1.4202954E-18
   34.55250        1.4192169E-18
   34.69500        1.4174046E-18
   34.83750        1.4153549E-18
   34.98000        1.4135597E-18
   35.12250        1.4124007E-18
   35.26500        1.4120715E-18
   35.40750        1.4125470E-18
   35.55000        1.4136011E-18
   35.69250        1.4148668E-18
   35.83500        1.4159254E-18
   35.97750        1.4164021E-18
   36.12000        1.4160446E-18
   36.26250        1.4147789E-18
   36.40500        1.4127270E-18
   36.54750        1.4101932E-18
   36.69000        1.4076132E-18
   36.83250        1.4054844E-18
   36.97500        1.4042764E-18
   37.11750        1.4043384E-18
   37.26000        1.4058328E-18
   37.40250        1.4086910E-18
   37.54500        1.4126233E-18
   37.68750        1.4171702E-18
   37.83000        1.4217941E-18
   37.97250        1.4259847E-18
   38.11500        1.4293539E-18
   38.25750        1.4317031E-18
   38.40000        1.4330392E-18
   38.54250        1.4335557E-18
   38.68500        1.4335734E-18
   38.82750        1.4334646E-18
   38.97000        1.4335714E-18
   39.11250        1.4341411E-18
   39.25500        1.4352745E-18
   39.39750        1.4369097E-18
   39.54000        1.4388295E-18
   39.68250        1.4407052E-18
   39.82500        1.4421662E-18
   39.96750        1.4428843E-18
   40.11000        1.4426569E-18
   40.25250        1.4414655E-18
   40.39500        1.4394976E-18
   40.53750        1.4371155E-18
   40.68000        1.4347887E-18
   40.82250        1.4329978E-18
   40.96500        1.4321351E-18
   41.10750        1.4324295E-18
   41.25000        1.4339033E-18
   41.39250        1.4363713E-18
   41.53500        1.4394813E-18
   41.67750        1.4427806E-18
   41.82000        1.4457950E-18
   41.96250        1.4481143E-18
   42.10500        1.4494613E-18
   42.24750        1.4497403E-18
   42.39000        1.4490514E-18
   42.53250        1.4476657E-18
   42.67500        1.4459665E-18
   42.81750        1.4443624E-18
   42.96000        1.4431975E-18
   43.10250        1.4426732E-18
   43.24500        1.4428085E-18
   43.38750        1.4434433E-18
   43.53000        1.4442849E-18
   43.67250        1.4449828E-18
   43.81500        1.4452166E-18
   43.95750        1.4447723E-18
   44.10000        1.4435931E-18
   44.24250        1.4417979E-18
   44.38500        1.4396642E-18
   44.52750        1.4375816E-18
   44.67000        1.4359807E-18
   44.81250        1.4352508E-18
   44.95500        1.4356617E-18
   45.09750        1.4372998E-18
   45.24000        1.4400420E-18
   45.38250        1.4435684E-18
   45.52500        1.4474208E-18
   45.66750        1.4510917E-18
   45.81000        1.4541279E-18
   45.95250        1.4562208E-18
   46.09500        1.4572625E-18
   46.23750        1.4573599E-18
   46.38000        1.4567996E-18
   46.52250        1.4559837E-18
   46.66500        1.4553454E-18
   46.80750        1.4552663E-18
   46.95000        1.4560066E-18
   47.09250        1.4576601E-18
   47.23500        1.4601360E-18
   47.37750        1.4631745E-18
   47.52000        1.4663946E-18
   47.66250        1.4693669E-18
   47.80500        1.4716998E-18
   47.94750        1.4731263E-18
   48.09000        1.4735613E-18
   48.23250        1.4731247E-18
   48.37500        1.4721124E-18
   48.51750        1.4709262E-18
   48.66000        1.4699811E-18
   48.80250        1.4696095E-18
   48.94500        1.4699935E-18
   49.08750        1.4711281E-18
   49.23000        1.4728303E-18
   49.37250        1.4747803E-18
   49.51500        1.4765847E-18
   49.65750        1.4778499E-18
   49.80000        1.4782564E-18
   49.94250        1.4776206E-18
   50.08500        1.4759359E-18
   50.22750        1.4733871E-18
   50.37000        1.4703301E-18
   50.51250        1.4672345E-18
   50.65500        1.4645963E-18
   50.79750        1.4628399E-18
   50.94000        1.4622300E-18
   51.08250        1.4628176E-18
   51.22500        1.4644317E-18
   51.36750        1.4667200E-18
   51.51000        1.4692257E-18
   51.65250        1.4714824E-18
   51.79500        1.4731049E-18
   51.93750        1.4738552E-18
   52.08000        1.4736798E-18
   52.22250        1.4727137E-18
   52.36500        1.4712509E-18
   52.50750        1.4696946E-18
   52.65000        1.4684778E-18
   52.79250        1.4679871E-18
   52.93500        1.4684813E-18
   53.07750        1.4700351E-18
   53.22000        1.4725169E-18
   53.36250        1.4756081E-18
   53.50500        1.4788678E-18
   53.64750        1.4818252E-18
   53.79000        1.4840766E-18
   53.93250        1.4853694E-18
   54.07500        1.4856484E-18
   54.21750        1.4850617E-18
   54.36000        1.4839225E-18
   54.50250        1.4826481E-18
   54.64500        1.4816770E-18
   54.78750        1.4813893E-18
   54.93000        1.4820361E-18
   55.07250        1.4836903E-18
   55.21500        1.4862255E-18
   55.35750        1.4893336E-18
   55.50000        1.4925772E-18
   55.64250        1.4954744E-18
   55.78500        1.4975944E-18
   55.92750        1.4986530E-18
   56.07000        1.4985696E-18
   56.21250        1.4974853E-18
   56.35500        1.4957277E-18
   56.49750        1.4937384E-18
   56.64000        1.4919786E-18
   56.78250        1.4908399E-18
   56.92500        1.4905705E-18
   57.06750        1.4912369E-18
   57.21000        1.4927150E-18
   57.35250        1.4947189E-18
   57.49500        1.4968521E-18
   57.63750        1.4986817E-18
   57.78000        1.4998237E-18
   57.92250        1.5000247E-18
   58.06500        1.4992264E-18
   58.20750        1.4975878E-18
   58.35000        1.4954655E-18
   58.49250        1.4933438E-18
   58.63500        1.4917296E-18
   58.77750        1.4910427E-18
   58.92000        1.4915248E-18
   59.06250        1.4931927E-18
   59.20500        1.4958392E-18
   59.34750        1.4990842E-18
   59.49000        1.5024533E-18
   59.63250        1.5054688E-18
   59.77500        1.5077349E-18
   59.91750        1.5090043E-18
   60.06000        1.5092202E-18
   60.20250        1.5085276E-18
   60.34500        1.5072495E-18
   60.48750        1.5058323E-18
   60.63000        1.5047600E-18
   60.77250        1.5044516E-18
   60.91500        1.5051663E-18
   61.05750        1.5069393E-18
   61.20000        1.5095671E-18
   61.34250        1.5126477E-18
   61.48500        1.5156675E-18
   61.62750        1.5181143E-18
   61.77000        1.5195850E-18
   61.91250        1.5198621E-18
   62.05500        1.5189530E-18
   62.19750        1.5170763E-18
   62.34000        1.5146187E-18
   62.48250        1.5120610E-18
   62.62500        1.5098954E-18
   62.76750        1.5085393E-18
   62.91000        1.5082621E-18
   63.05250        1.5091325E-18
   63.19500        1.5109996E-18
   63.33750        1.5135166E-18
   63.48000        1.5162073E-18
   63.62250        1.5185644E-18
   63.76500        1.5201579E-18
   63.90750        1.5207251E-18
   64.05000        1.5202250E-18
   64.19250        1.5188400E-18
   64.33500        1.5169291E-18
   64.47750        1.5149504E-18
   64.62000        1.5133703E-18
   64.76250        1.5125762E-18
   64.90500        1.5128161E-18
   65.04750        1.5141586E-18
   65.19000        1.5164870E-18
   65.33250        1.5195229E-18
   65.47500        1.5228725E-18
   65.61750        1.5260999E-18
   65.76000        1.5288084E-18
   65.90250        1.5307205E-18
   66.04500        1.5317311E-18
   66.18750        1.5319243E-18
   66.33000        1.5315443E-18
   66.47250        1.5309307E-18
   66.61500        1.5304300E-18
   66.75750        1.5303165E-18
   66.90000        1.5307324E-18
   67.04250        1.5316654E-18
   67.18500        1.5329628E-18
   67.32750        1.5343682E-18
   67.47000        1.5355750E-18
   67.61250        1.5362867E-18
   67.75500        1.5362716E-18
   67.89750        1.5354145E-18
   68.04000        1.5337490E-18
   68.18250        1.5314690E-18
   68.32500        1.5289073E-18
   68.46750        1.5264812E-18
   68.61000        1.5246102E-18
   68.75250        1.5236273E-18
   68.89500        1.5237036E-18
   69.03750        1.5248134E-18
   69.18000        1.5267380E-18
   69.32250        1.5291228E-18
   69.46500        1.5315512E-18
   69.60750        1.5336311E-18
   69.75000        1.5350635E-18
   69.89250        1.5356854E-18
   70.03500        1.5354912E-18
   70.17750        1.5346242E-18
   70.32000        1.5333513E-18
   70.46250        1.5320200E-18
   70.60500        1.5309982E-18
   70.74750        1.5306069E-18
   70.89000        1.5310507E-18
   71.03250        1.5323659E-18
   71.17500        1.5344046E-18
   71.31750        1.5368607E-18
   71.46000        1.5393348E-18
   71.60250        1.5414273E-18
   71.74500        1.5428281E-18
   71.88750        1.5433801E-18
   72.03000        1.5431049E-18
   72.17250        1.5421871E-18
   72.31500        1.5409240E-18
   72.45750        1.5396647E-18
   72.60000        1.5387434E-18
   72.74250        1.5384265E-18
   72.88500        1.5388689E-18
   73.02750        1.5400885E-18
   73.17000        1.5419623E-18
   73.31250        1.5442448E-18
   73.45500        1.5466127E-18
   73.59750        1.5487318E-18
   73.74000        1.5503339E-18
   73.88250        1.5512804E-18
   74.02500        1.5515979E-18
   74.16750        1.5514706E-18
   74.31000        1.5511880E-18
   74.45250        1.5510692E-18
   74.59500        1.5513811E-18
   74.73750        1.5522757E-18
   74.88000        1.5537543E-18
   75.02250        1.5556702E-18
   75.16500        1.5577578E-18
   75.30750        1.5596835E-18
   75.45000        1.5611053E-18
   75.59250        1.5617351E-18
   75.73500        1.5614003E-18
   75.87750        1.5600848E-18
   76.02000        1.5579537E-18
   76.16250        1.5553379E-18
   76.30500        1.5526810E-18
   76.44750        1.5504535E-18
   76.59000        1.5490540E-18
   76.73250        1.5487207E-18
   76.87500        1.5494804E-18
   77.01750        1.5511454E-18
   77.16000        1.5533586E-18
   77.30250        1.5556715E-18
   77.44500        1.5576372E-18
   77.58750        1.5588949E-18
   77.73000        1.5592317E-18
   77.87250        1.5586172E-18
   78.01500        1.5572099E-18
   78.15750        1.5553337E-18
   78.30000        1.5534290E-18
   78.44250        1.5519761E-18
   78.58500        1.5514071E-18
   78.72750        1.5520102E-18
   78.87000        1.5538678E-18
   79.01250        1.5568249E-18
   79.15500        1.5605213E-18
   79.29750        1.5644665E-18
   79.44000        1.5681507E-18
   79.58250        1.5711524E-18
   79.72500        1.5732197E-18
   79.86750        1.5743083E-18
   80.01000        1.5745689E-18
   80.15250        1.5742990E-18
   80.29500        1.5738705E-18
   80.43750        1.5736510E-18
   80.58000        1.5739341E-18
   80.72250        1.5748788E-18
   80.86500        1.5764713E-18
   81.00750        1.5785133E-18
   81.15000        1.5806475E-18
   81.29250        1.5824180E-18
   81.43500        1.5833647E-18
   81.57750        1.5831272E-18
   81.72000        1.5815376E-18
   81.86250        1.5786734E-18
   82.00500        1.5748522E-18
   82.14750        1.5705713E-18
   82.29000        1.5664074E-18
   82.43250        1.5629029E-18
   82.57500        1.5604672E-18
   82.71750        1.5593126E-18
   82.86000        1.5594315E-18
   83.00250        1.5606126E-18
   83.14500        1.5624908E-18
   83.28750        1.5646130E-18
   83.43000        1.5665201E-18
   83.57250        1.5678305E-18
   83.71500        1.5683124E-18
   83.85750        1.5679357E-18
   84.00000        1.5668794E-18
   84.14250        1.5654954E-18
   84.28500        1.5642285E-18
   84.42750        1.5635118E-18
   84.57000        1.5636629E-18
   84.71250        1.5648119E-18
   84.85500        1.5668705E-18
   84.99750        1.5695598E-18
   85.14000        1.5724704E-18
   85.28250        1.5751471E-18
   85.42500        1.5771764E-18
   85.56750        1.5782565E-18
   85.71000        1.5782483E-18
   85.85250        1.5772001E-18
   85.99500        1.5753414E-18
   86.13750        1.5730501E-18
   86.28000        1.5707880E-18
   86.42250        1.5690138E-18
   86.56500        1.5680938E-18
   86.70750        1.5682240E-18
   86.85000        1.5693908E-18
   86.99250        1.5713806E-18
   87.13500        1.5738340E-18
   87.27750        1.5763354E-18
   87.42000        1.5785065E-18
   87.56250        1.5800832E-18
   87.70500        1.5809604E-18
   87.84750        1.5811962E-18
   87.99000        1.5809866E-18
   88.13250        1.5806231E-18
   88.27500        1.5804350E-18
   88.41750        1.5807279E-18
   88.56000        1.5817264E-18
   88.70250        1.5835220E-18
   88.84500        1.5860409E-18
   88.98750        1.5890432E-18
   89.13000        1.5921624E-18
   89.27250        1.5949781E-18
   89.41500        1.5971143E-18
   89.55750        1.5983314E-18
   89.70000        1.5985844E-18
   89.84250        1.5980399E-18
   89.98500        1.5970338E-18
   90.12750        1.5959955E-18
   90.27000        1.5953570E-18
   90.41250        1.5954664E-18
   90.55500        1.5965266E-18
   90.69750        1.5985631E-18
   90.84000        1.6014202E-18
   90.98250        1.6047828E-18
   91.12500        1.6082197E-18
   91.26750        1.6112495E-18
   91.41000        1.6134213E-18
   91.55250        1.6144013E-18
   91.69500        1.6140498E-18
   91.83750        1.6124577E-18
   91.98000        1.6099422E-18
   92.12250        1.6069827E-18
   92.26500        1.6041208E-18
   92.40750        1.6018480E-18
   92.55000        1.6005080E-18
   92.69250        1.6002368E-18
   92.83500        1.6009542E-18
   92.97750        1.6023987E-18
   93.12000        1.6041939E-18
   93.26250        1.6059272E-18
   93.40500        1.6072290E-18
   93.54750        1.6078399E-18
   93.69000        1.6076617E-18
   93.83250        1.6067780E-18
   93.97500        1.6054449E-18
   94.11750        1.6040468E-18
   94.26000        1.6030172E-18
   94.40250        1.6027409E-18
   94.54500        1.6034618E-18
   94.68750        1.6052190E-18
   94.83000        1.6078336E-18
   94.97250        1.6109428E-18
   95.11500        1.6140823E-18
   95.25750        1.6167850E-18
   95.40000        1.6186761E-18
   95.54250        1.6195461E-18
   95.68500        1.6193836E-18
   95.82750        1.6183712E-18
   95.97000        1.6168507E-18
   96.11250        1.6152572E-18
   96.25500        1.6140415E-18
   96.39750        1.6135814E-18
   96.54000        1.6141028E-18
   96.68250        1.6156227E-18
   96.82500        1.6179352E-18
   96.96750        1.6206461E-18
   97.11000        1.6232531E-18
   97.25250        1.6252592E-18
   97.39500        1.6262796E-18
   97.53750        1.6261275E-18
   97.68000        1.6248457E-18
   97.82250        1.6226902E-18
   97.96500        1.6200652E-18
   98.10750        1.6174356E-18
   98.25000        1.6152384E-18
   98.39250        1.6138053E-18
   98.53500        1.6133047E-18
   98.67750        1.6137168E-18
   98.82000        1.6148304E-18
   98.96250        1.6162755E-18
   99.10500        1.6175882E-18
   99.24750        1.6183002E-18
   99.39000        1.6180379E-18