  -30.00000        9.8404491E-18
  -29.85750        9.8575114E-18
  -29.71500        9.8833467E-18
  -29.57250        9.9064250E-18
  -29.43000        9.9186384E-18
  -29.28750        9.9198287E-18
  -29.14500        9.9174952E-18
  -29.00250        9.9219024E-18
  -28.86000        9.9395578E-18
  -28.71750        9.9690261E-18
  -28.57500        1.0001579E-17
  -28.43250        1.0026314E-17
  -28.29000        1.0036637E-17
  -28.14750        1.0034205E-17
  -28.00500        1.0027964E-17
  -27.86250        1.0028840E-17
  -27.72000        1.0043282E-17
  -27.57750        1.0069506E-17
  -27.43500        1.0098687E-17
  -27.29250        1.0120337E-17
  -27.15000        1.0128631E-17
  -27.00750        1.0125850E-17
  -26.86500        1.0120925E-17
  -26.72250        1.0123965E-17
  -26.58000        1.0140108E-17
  -26.43750        1.0166419E-17
  -26.29500        1.0193692E-17
  -26.15250        1.0212048E-17
  -26.01000        1.0216924E-17
  -25.86750        1.0211842E-17
  -25.72500        1.0206276E-17
  -25.58250        1.0209910E-17
  -25.44000        1.0226793E-17
  -25.29750        1.0252895E-17
  -25.15500        1.0278560E-17
  -25.01250        1.0294348E-17
  -24.87000        1.0296734E-17
  -24.72750        1.0290215E-17
  -24.58500        1.0284560E-17
  -24.44250        1.0288874E-17
  -24.30000        1.0306096E-17
  -24.15750        1.0331250E-17
  -24.01500        1.0354522E-17
  -23.87250        1.0367273E-17
  -23.73000        1.0367342E-17
  -23.58750        1.0360402E-17
  -23.44500        1.0356539E-17
  -23.30250        1.0364098E-17
  -23.16000        1.0384557E-17
  -23.01750        1.0411520E-17
  -22.87500        1.0434486E-17
  -22.73250        1.0445126E-17
  -22.59000        1.0442283E-17
  -22.44750        1.0432670E-17
  -22.30500        1.0426834E-17
  -22.16250        1.0432807E-17
  -22.02000        1.0451279E-17
  -21.87750        1.0475213E-17
  -21.73500        1.0494144E-17
  -21.59250        1.0500559E-17
  -21.45000        1.0494499E-17
  -21.30750        1.0483588E-17
  -21.16500        1.0478438E-17
  -21.02250        1.0486198E-17
  -20.88000        1.0506133E-17
  -20.73750        1.0529930E-17
  -20.59500        1.0546583E-17
  -20.45250        1.0548948E-17
  -20.31000        1.0538030E-17
  -20.16750        1.0522445E-17
  -20.02500        1.0513342E-17
  -19.88250        1.0517849E-17
  -19.74000        1.0534947E-17
  -19.59750        1.0556246E-17
  -19.45500        1.0571184E-17
  -19.31250        1.0573490E-17
  -19.17000        1.0565037E-17
  -19.02750        1.0554719E-17
  -18.88500        1.0553053E-17
  -18.74250        1.0565732E-17
  -18.60000        1.0590020E-17
  -18.45750        1.0616172E-17
  -18.31500        1.0633042E-17
  -18.17250        1.0634550E-17
  -18.03000        1.0623143E-17
  -17.88750        1.0608202E-17
  -17.74500        1.0600378E-17
  -17.60250        1.0605275E-17
  -17.46000        1.0620252E-17
  -17.31750        1.0636255E-17
  -17.17500        1.0643511E-17
  -17.03250        1.0637650E-17
  -16.89000        1.0622527E-17
  -16.74750        1.0608046E-17
  -16.60500        1.0604312E-17
  -16.46250        1.0615602E-17
  -16.32000        1.0637830E-17
  -16.17750        1.0660974E-17
  -16.03500        1.0675040E-17
  -15.89250        1.0675931E-17
  -15.75000        1.0667742E-17
  -15.60750        1.0660102E-17
  -15.46500        1.0662217E-17
  -15.32250        1.0677232E-17
  -15.18000        1.0700300E-17
  -15.03750        1.0721532E-17
  -14.89500        1.0731989E-17
  -14.75250        1.0729098E-17
  -14.61000        1.0718192E-17
  -14.46750        1.0709258E-17
  -14.32500        1.0710866E-17
  -14.18250        1.0724967E-17
  -14.04000        1.0745720E-17
  -13.89750        1.0763046E-17
  -13.75500        1.0768766E-17
  -13.61250        1.0761594E-17
  -13.47000        1.0747965E-17
  -13.32750        1.0738183E-17
  -13.18500        1.0740234E-17
  -13.04250        1.0754996E-17
  -12.90000        1.0775761E-17
  -12.75750        1.0792341E-17
  -12.61500        1.0797274E-17
  -12.47250        1.0790356E-17
  -12.33000        1.0778756E-17
  -12.18750        1.0772624E-17
  -12.04500        1.0778853E-17
  -11.90250        1.0796805E-17
  -11.76000        1.0818589E-17
  -11.61750        1.0833773E-17
  -11.47500        1.0835686E-17
  -11.33250        1.0825508E-17
  -11.19000        1.0811657E-17
  -11.04750        1.0804814E-17
  -10.90500        1.0811567E-17
  -10.76250        1.0830496E-17
  -10.62000        1.0853060E-17
  -10.47750        1.0868765E-17
  -10.33500        1.0871499E-17
  -10.19250        1.0863196E-17
  -10.05000        1.0852636E-17
  -9.907500        1.0850080E-17
  -9.765000        1.0860974E-17
  -9.622500        1.0882544E-17
  -9.480000        1.0905342E-17
  -9.337500        1.0918861E-17
  -9.195000        1.0917838E-17
  -9.052500        1.0905471E-17
  -8.910000        1.0891594E-17
  -8.767500        1.0886885E-17
  -8.625000        1.0896567E-17
  -8.482500        1.0917363E-17
  -8.340000        1.0939524E-17
  -8.197500        1.0952698E-17
  -8.055000        1.0952112E-17
  -7.912500        1.0941358E-17
  -7.770000        1.0930127E-17
  -7.627500        1.0928265E-17
  -7.485000        1.0939750E-17
  -7.342500        1.0960215E-17
  -7.200000        1.0979534E-17
  -7.057500        1.0987892E-17
  -6.915000        1.0981721E-17
  -6.772500        1.0965918E-17
  -6.630000        1.0951018E-17
  -6.487500        1.0947025E-17
  -6.345000        1.0957585E-17
  -6.202500        1.0977987E-17
  -6.060000        1.0998141E-17
  -5.917500        1.1008730E-17
  -5.775000        1.1006790E-17
  -5.632500        1.0997398E-17
  -5.490000        1.0990449E-17
  -5.347500        1.0994536E-17
  -5.205000        1.1011617E-17
  -5.062500        1.1035723E-17
  -4.920000        1.1056479E-17
  -4.777500        1.1065293E-17
  -4.635000        1.1060492E-17
  -4.492500        1.1048294E-17
  -4.350000        1.1039058E-17
  -4.207500        1.1041060E-17
  -4.065000        1.1055581E-17
  -3.922500        1.1076235E-17
  -3.780000        1.1092930E-17
  -3.637500        1.1098038E-17
  -3.495000        1.1091023E-17
  -3.352500        1.1078742E-17
  -3.210000        1.1071233E-17
  -3.067500        1.1075589E-17
  -2.925000        1.1091604E-17
  -2.782500        1.1111892E-17
  -2.640000        1.1126360E-17
  -2.497500        1.1128363E-17
  -2.355000        1.1118772E-17
  -2.212500        1.1105505E-17
  -2.070000        1.1098773E-17
  -1.927500        1.1104918E-17
  -1.785000        1.1122586E-17
  -1.642500        1.1143536E-17
  -1.500000        1.1157617E-17
  -1.357500        1.1158903E-17
  -1.215000        1.1149266E-17
  -1.072500        1.1137224E-17
 -0.9300000        1.1132748E-17
 -0.7875000        1.1141177E-17
 -0.6450000        1.1159930E-17
 -0.5025000        1.1180033E-17
 -0.3600000        1.1191534E-17
 -0.2175000        1.1189572E-17
 -7.5000003E-02    1.1177400E-17
  6.7500003E-02    1.1164513E-17
  0.2100000        1.1160988E-17
  0.3525000        1.1171434E-17
  0.4950000        1.1192184E-17
  0.6375000        1.1213450E-17
  0.7800000        1.1225158E-17
  0.9225000        1.1222959E-17
   1.065000        1.1210814E-17
   1.207500        1.1198574E-17
   1.350000        1.1196029E-17
   1.492500        1.1207000E-17
   1.635000        1.1227030E-17
   1.777500        1.1246078E-17
   1.920000        1.1254608E-17
   2.062500        1.1249400E-17
   2.205000        1.1235574E-17
   2.347500        1.1223611E-17
   2.490000        1.1223127E-17
   2.632500        1.1237131E-17
   2.775000        1.1260210E-17
   2.917500        1.1281728E-17
   3.060000        1.1292120E-17
   3.202500        1.1288516E-17
   3.345000        1.1276318E-17
   3.487500        1.1265839E-17
   3.630000        1.1266019E-17
   3.772500        1.1279010E-17
   3.915000        1.1298909E-17
   4.057500        1.1315351E-17
   4.200000        1.1319817E-17
   4.342500        1.1310830E-17
   4.485000        1.1294925E-17
   4.627500        1.1282793E-17
   4.770000        1.1282953E-17
   4.912500        1.1296711E-17
   5.055000        1.1317468E-17
   5.197500        1.1334729E-17
   5.340000        1.1340408E-17
   5.482500        1.1333623E-17
   5.625000        1.1321107E-17
   5.767500        1.1313033E-17
   5.910000        1.1316799E-17
   6.052500        1.1332534E-17
   6.195000        1.1353047E-17
   6.337500        1.1368220E-17
   6.480000        1.1371171E-17
   6.622500        1.1362450E-17
   6.765000        1.1349727E-17
   6.907500        1.1343172E-17
   7.050000        1.1349320E-17
   7.192500        1.1367147E-17
   7.335000        1.1388702E-17
   7.477500        1.1403932E-17
   7.620000        1.1406740E-17
   7.762500        1.1398636E-17
   7.905000        1.1387754E-17
   8.047500        1.1383869E-17
   8.190000        1.1392424E-17
   8.332500        1.1411202E-17
   8.475000        1.1431672E-17
   8.617500        1.1444174E-17
   8.760000        1.1443794E-17
   8.902500        1.1433372E-17
   9.045000        1.1421776E-17
   9.187500        1.1418497E-17
   9.330000        1.1427840E-17
   9.472500        1.1446226E-17
   9.615000        1.1464267E-17
   9.757500        1.1472393E-17
   9.900000        1.1466626E-17
   10.04250        1.1451020E-17
   10.18500        1.1435284E-17
   10.32750        1.1428999E-17
   10.47000        1.1435929E-17
   10.61250        1.1451853E-17
   10.75500        1.1467232E-17
   10.89750        1.1473103E-17
   11.04000        1.1466630E-17
   11.18250        1.1452949E-17
   11.32500        1.1442149E-17
   11.46750        1.1443203E-17
   11.61000        1.1458499E-17
   11.75250        1.1482265E-17
   11.89500        1.1503891E-17
   12.03750        1.1514156E-17
   12.18000        1.1510644E-17
   12.32250        1.1499111E-17
   12.46500        1.1489962E-17
   12.60750        1.1491971E-17
   12.75000        1.1506996E-17
   12.89250        1.1528893E-17
   13.03500        1.1547222E-17
   13.17750        1.1553577E-17
   13.32000        1.1546668E-17
   13.46250        1.1533125E-17
   13.60500        1.1523527E-17
   13.74750        1.1526036E-17
   13.89000        1.1541467E-17
   14.03250        1.1562745E-17
   14.17500        1.1579103E-17
   14.31750        1.1582481E-17
   14.46000        1.1572309E-17
   14.60250        1.1555816E-17
   14.74500        1.1543693E-17
   14.88750        1.1543740E-17
   15.03000        1.1556286E-17
   15.17250        1.1574144E-17
   15.31500        1.1587074E-17
   15.45750        1.1588038E-17
   15.60000        1.1577497E-17
   15.74250        1.1563130E-17
   15.88500        1.1555196E-17
   16.02750        1.1560326E-17
   16.17000        1.1577505E-17
   16.31250        1.1598659E-17
   16.45500        1.1613471E-17
   16.59750        1.1615532E-17
   16.74000        1.1606105E-17
   16.88250        1.1593266E-17
   17.02500        1.1586964E-17
   17.16750        1.1592996E-17
   17.31000        1.1609539E-17
   17.45250        1.1628316E-17
   17.59500        1.1639666E-17
   17.73750        1.1638429E-17
   17.88000        1.1627070E-17
   18.02250        1.1614175E-17
   18.16500        1.1609233E-17
   18.30750        1.1616872E-17
   18.45000        1.1634069E-17
   18.59250        1.1652000E-17
   18.73500        1.1661419E-17
   18.87750        1.1658291E-17
   19.02000        1.1646275E-17
   19.16250        1.1634522E-17
   19.30500        1.1632146E-17
   19.44750        1.1642707E-17
   19.59000        1.1662040E-17
   19.73250        1.1680767E-17
   19.87500        1.1689960E-17
   20.01750        1.1686522E-17
   20.16000        1.1675037E-17
   20.30250        1.1664949E-17
   20.44500        1.1664780E-17
   20.58750        1.1676908E-17
   20.73000        1.1696054E-17
   20.87250        1.1712451E-17
   21.01500        1.1717762E-17
   21.15750        1.1710185E-17
   21.30000        1.1695647E-17
   21.44250        1.1684336E-17
   21.58500        1.1684631E-17
   21.72750        1.1698093E-17
   21.87000        1.1718536E-17
   22.01250        1.1735738E-17
   22.15500        1.1741581E-17
   22.29750        1.1734914E-17
   22.44000        1.1722200E-17
   22.58250        1.1713562E-17
   22.72500        1.1716597E-17
   22.86750        1.1731697E-17
   23.01000        1.1751696E-17
   23.15250        1.1766114E-17
   23.29500        1.1767415E-17
   23.43750        1.1755566E-17
   23.58000        1.1738120E-17
   23.72250        1.1725781E-17
   23.86500        1.1726095E-17
   24.00750        1.1739023E-17
   24.15000        1.1757081E-17
   24.29250        1.1769912E-17
   24.43500        1.1770556E-17
   24.57750        1.1759652E-17
   24.72000        1.1745042E-17
   24.86250        1.1737034E-17
   25.00500        1.1742170E-17
   25.14750        1.1759270E-17
   25.29000        1.1780097E-17
   25.43250        1.1794278E-17
   25.57500        1.1795484E-17
   25.71750        1.1785200E-17
   25.86000        1.1771803E-17
   26.00250        1.1765522E-17
   26.14500        1.1772332E-17
   26.28750        1.1790419E-17
   26.43000        1.1811333E-17
   26.57250        1.1825101E-17
   26.71500        1.1826209E-17
   26.85750        1.1816846E-17
   27.00000        1.1805476E-17
   27.14250        1.1801646E-17
   27.28500        1.1810153E-17
   27.42750        1.1828129E-17
   27.57000        1.1846762E-17
   27.71250        1.1856620E-17
   27.85500        1.1853339E-17
   27.99750        1.1840255E-17
   28.14000        1.1826382E-17
   28.28250        1.1821001E-17
   28.42500        1.1828106E-17
   28.56750        1.1844087E-17
   28.71000        1.1860003E-17
   28.85250        1.1867076E-17
   28.99500        1.1862040E-17
   29.13750        1.1849126E-17
   29.28000        1.1837483E-17
   29.42250        1.1835608E-17
   29.56500        1.1846178E-17
   29.70750        1.1864419E-17
   29.85000        1.1880995E-17
   29.99250        1.1887680E-17
   30.13500        1.1882339E-17
   30.27750        1.1870230E-17
   30.42000        1.1860792E-17
   30.56250        1.1861898E-17
   30.70500        1.1875026E-17
   30.84750        1.1894300E-17
   30.99000        1.1909985E-17
   31.13250        1.1914341E-17
   31.27500        1.1906278E-17
   31.41750        1.1892022E-17
   31.56000        1.1881345E-17
   31.70250        1.1881665E-17
   31.84500        1.1893565E-17
   31.98750        1.1910454E-17
   32.13000        1.1922581E-17
   32.27250        1.1922995E-17
   32.41500        1.1911822E-17
   32.55750        1.1896272E-17
   32.70000        1.1886336E-17
   32.84250        1.1888758E-17
   32.98500        1.1902907E-17
   33.12750        1.1921058E-17
   33.27000        1.1932941E-17
   33.41250        1.1931837E-17
   33.55500        1.1918572E-17
   33.69750        1.1901009E-17
   33.84000        1.1889338E-17
   33.98250        1.1889998E-17
   34.12500        1.1901879E-17
   34.26750        1.1917090E-17
   34.41000        1.1925822E-17
   34.55250        1.1922389E-17
   34.69500        1.1908789E-17
   34.83750        1.1893637E-17
   34.98000        1.1887097E-17
   35.12250        1.1894841E-17
   35.26500        1.1914660E-17
   35.40750        1.1937761E-17
   35.55000        1.1953972E-17
   35.69250        1.1957735E-17
   35.83500        1.1951325E-17
   35.97750        1.1943343E-17
   36.12000        1.1943457E-17
   36.26250        1.1956511E-17
   36.40500        1.1979585E-17
   36.54750        1.2003715E-17
   36.69000        1.2019253E-17
   36.83250        1.2021608E-17
   36.97500        1.2013931E-17
   37.11750        1.2005131E-17
   37.26000        1.2004446E-17
   37.40250        1.2015826E-17
   37.54500        1.2035532E-17
   37.68750        1.2054360E-17
   37.83000        1.2063154E-17
   37.97250        1.2058274E-17
   38.11500        1.2043739E-17
   38.25750        1.2028767E-17
   38.40000        1.2022237E-17
   38.54250        1.2027403E-17
   38.68500        1.2040051E-17
   38.82750        1.2051179E-17
   38.97000        1.2052559E-17
   39.11250        1.2041796E-17
   39.25500        1.2023825E-17
   39.39750        1.2007961E-17
   39.54000        1.2002285E-17
   39.68250        1.2008794E-17
   39.82500        1.2022235E-17
   39.96750        1.2033327E-17
   40.11000        1.2034419E-17
   40.25250        1.2024136E-17
   40.39500        1.2008222E-17
   40.53750        1.1996050E-17
   40.68000        1.1994930E-17
   40.82250        1.2005661E-17
   40.96500        1.2022034E-17
   41.10750        1.2034561E-17
   41.25000        1.2036212E-17
   41.39250        1.2026649E-17
   41.53500        1.2012415E-17
   41.67750        1.2002947E-17
   41.82000        1.2004842E-17
   41.96250        1.2017850E-17
   42.10500        1.2035022E-17
   42.24750        1.2046955E-17
   42.39000        1.2047552E-17
   42.53250        1.2037807E-17
   42.67500        1.2025307E-17
   42.81750        1.2019720E-17
   42.96000        1.2026975E-17
   43.10250        1.2045646E-17
   43.24500        1.2067728E-17
   43.38750        1.2083362E-17
   43.53000        1.2086673E-17
   43.67250        1.2079217E-17
   43.81500        1.2068946E-17
   43.95750        1.2065333E-17
   44.10000        1.2073568E-17
   44.24250        1.2091358E-17
   44.38500        1.2110255E-17
   44.52750        1.2120731E-17
   44.67000        1.2117954E-17
   44.81250        1.2104787E-17
   44.95500        1.2090175E-17
   45.09750        1.2083881E-17
   45.24000        1.2090705E-17
   45.38250        1.2107656E-17
   45.52500        1.2125770E-17
   45.66750        1.2135478E-17
   45.81000        1.2132323E-17
   45.95250        1.2119579E-17
   46.09500        1.2106229E-17
   46.23750        1.2101521E-17
   46.38000        1.2109365E-17
   46.52250        1.2125968E-17
   46.66500        1.2142094E-17
   46.80750        1.2148607E-17
   46.95000        1.2141967E-17
   47.09250        1.2126367E-17
   47.23500        1.2111250E-17
   47.37750        1.2105695E-17
   47.52000        1.2113039E-17
   47.66250        1.2128968E-17
   47.80500        1.2144179E-17
   47.94750        1.2150024E-17
   48.09000        1.2143705E-17
   48.23250        1.2129920E-17
   48.37500        1.2117993E-17
   48.51750        1.2116232E-17
   48.66000        1.2126924E-17
   48.80250        1.2144986E-17
   48.94500        1.2161055E-17
   49.08750        1.2167145E-17
   49.23000        1.2161443E-17
   49.37250        1.2149358E-17
   49.51500        1.2140202E-17
   49.65750        1.2141533E-17
   49.80000        1.2154567E-17
   49.94250        1.2173438E-17
   50.08500        1.2188735E-17
   50.22750        1.2193157E-17
   50.37000        1.2185888E-17
   50.51250        1.2173033E-17
   50.65500        1.2163871E-17
   50.79750        1.2165223E-17
   50.94000        1.2177329E-17
   51.08250        1.2193742E-17
   51.22500        1.2205288E-17
   51.36750        1.2205672E-17
   51.51000        1.2195336E-17
   51.65250        1.2181211E-17
   51.79500        1.2172516E-17
   51.93750        1.2175140E-17
   52.08000        1.2188023E-17
   52.22250        1.2203748E-17
   52.36500        1.2212981E-17
   52.50750        1.2210105E-17
   52.65000        1.2196628E-17
   52.79250        1.2180306E-17
   52.93500        1.2170498E-17
   53.07750        1.2172557E-17
   53.22000        1.2184661E-17
   53.36250        1.2198978E-17
   53.50500        1.2206494E-17
   53.64750        1.2202568E-17
   53.79000        1.2189830E-17
   53.93250        1.2176674E-17
   54.07500        1.2172203E-17
   54.21750        1.2180689E-17
   54.36000        1.2198888E-17
   54.50250        1.2217846E-17
   54.64500        1.2228164E-17
   54.78750        1.2225547E-17
   54.93000        1.2213331E-17
   55.07250        1.2200444E-17
   55.21500        1.2196043E-17
   55.35750        1.2204020E-17
   55.50000        1.2220713E-17
   55.64250        1.2237171E-17
   55.78500        1.2244619E-17
   55.92750        1.2239838E-17
   56.07000        1.2227190E-17
   56.21250        1.2216078E-17
   56.35500        1.2215314E-17
   56.49750        1.2227817E-17
   56.64000        1.2248785E-17
   56.78250        1.2268479E-17
   56.92500        1.2277943E-17
   57.06750        1.2274256E-17
   57.21000        1.2262177E-17
   57.35250        1.2251204E-17
   57.49500        1.2249846E-17
   57.63750        1.2260509E-17
   57.78000        1.2278104E-17
   57.92250        1.2293155E-17
   58.06500        1.2297539E-17
   58.20750        1.2289388E-17
   58.35000        1.2274220E-17
   58.49250        1.2261603E-17
   58.63500        1.2259402E-17
   58.77750        1.2269051E-17
   58.92000        1.2284716E-17
   59.06250        1.2296822E-17
   59.20500        1.2297845E-17
   59.34750        1.2286851E-17
   59.49000        1.2270086E-17
   59.63250        1.2257268E-17
   59.77500        1.2255818E-17
   59.91750        1.2266501E-17
   60.06000        1.2283092E-17
   60.20250        1.2296214E-17
   60.34500        1.2299023E-17
   60.48750        1.2291281E-17
   60.63000        1.2279385E-17
   60.77250        1.2272347E-17
   60.91500        1.2276190E-17
   61.05750        1.2290180E-17
   61.20000        1.2307179E-17
   61.34250        1.2317920E-17
   61.48500        1.2316614E-17
   61.62750        1.2304497E-17
   61.77000        1.2289160E-17
   61.91250        1.2280073E-17
   62.05500        1.2282984E-17
   62.19750        1.2296578E-17
   62.34000        1.2313395E-17
   62.48250        1.2324423E-17
   62.62500        1.2324588E-17
   62.76750        1.2315783E-17
   62.91000        1.2305617E-17
   63.05250        1.2302647E-17
   63.19500        1.2311004E-17
   63.33750        1.2327689E-17
   63.48000        1.2344230E-17
   63.62250        1.2351706E-17
   63.76500        1.2346135E-17
   63.90750        1.2330942E-17
   64.05000        1.2315007E-17
   64.19250        1.2307436E-17
   64.33500        1.2312188E-17
   64.47750        1.2325798E-17
   64.62000        1.2339549E-17
   64.76250        1.2344810E-17
   64.90500        1.2338293E-17
   65.04750        1.2324057E-17
   65.19000        1.2311052E-17
   65.33250        1.2307661E-17
   65.47500        1.2316560E-17
   65.61750        1.2333008E-17
   65.76000        1.2347628E-17
   65.90250        1.2352036E-17
   66.04500        1.2343934E-17
   66.18750        1.2328590E-17
   66.33000        1.2315794E-17
   66.47250        1.2314086E-17
   66.61500        1.2325716E-17
   66.75750        1.2345327E-17
   66.90000        1.2363189E-17
   67.04250        1.2371005E-17
   67.18500        1.2366831E-17
   67.32750        1.2356154E-17
   67.47000        1.2348491E-17
   67.61250        1.2351567E-17
   67.75500        1.2366571E-17
   67.89750        1.2387370E-17
   68.04000        1.2404136E-17
   68.18250        1.2409214E-17
   68.32500        1.2401714E-17
   68.46750        1.2388047E-17
   68.61000        1.2378086E-17
   68.75250        1.2379259E-17
   68.89500        1.2392104E-17
   69.03750        1.2409953E-17
   69.18000        1.2422910E-17
   69.32250        1.2423753E-17
   69.46500        1.2412192E-17
   69.60750        1.2394963E-17
   69.75000        1.2381748E-17
   69.89250        1.2379362E-17
   70.03500        1.2387758E-17
   70.17750        1.2400220E-17
   70.32000        1.2407603E-17
   70.46250        1.2404041E-17
   70.60500        1.2390637E-17
   70.74750        1.2374931E-17
   70.89000        1.2366423E-17
   71.03250        1.2370881E-17
   71.17500        1.2386844E-17
   71.31750        1.2406443E-17
   71.46000        1.2420018E-17
   71.60250        1.2421761E-17
   71.74500        1.2412996E-17
   71.88750        1.2401142E-17
   72.03000        1.2395039E-17
   72.17250        1.2399485E-17
   72.31500        1.2412307E-17
   72.45750        1.2425760E-17
   72.60000        1.2431348E-17
   72.74250        1.2425157E-17
   72.88500        1.2410412E-17
   73.02750        1.2395695E-17
   73.17000        1.2389866E-17
   73.31250        1.2396750E-17
   73.45500        1.2412809E-17
   73.59750        1.2429204E-17
   73.74000        1.2437029E-17
   73.88250        1.2432553E-17
   74.02500        1.2419318E-17
   74.16750        1.2405851E-17
   74.31000        1.2400376E-17
   74.45250        1.2405762E-17
   74.59500        1.2417759E-17
   74.73750        1.2427637E-17
   74.88000        1.2427595E-17
   75.02250        1.2415682E-17
   75.16500        1.2397197E-17
   75.30750        1.2381698E-17
   75.45000        1.2377367E-17
   75.59250        1.2386138E-17
   75.73500        1.2402508E-17
   75.87750        1.2416792E-17
   76.02000        1.2420874E-17
   76.16250        1.2413015E-17
   76.30500        1.2398825E-17
   76.44750        1.2387831E-17
   76.59000        1.2387690E-17
   76.73250        1.2399558E-17
   76.87500        1.2417399E-17
   77.01750        1.2431644E-17
   77.16000        1.2435033E-17
   77.30250        1.2427052E-17
   77.44500        1.2414326E-17
   77.58750        1.2406667E-17
   77.73000        1.2411159E-17
   77.87250        1.2427811E-17
   78.01500        1.2449416E-17
   78.15750        1.2465713E-17
   78.30000        1.2469376E-17
   78.44250        1.2460258E-17
   78.58500        1.2445364E-17
   78.72750        1.2434587E-17
   78.87000        1.2434782E-17
   79.01250        1.2445722E-17
   79.15500        1.2460373E-17
   79.29750        1.2469269E-17
   79.44000        1.2466352E-17
   79.58250        1.2452730E-17
   79.72500        1.2436092E-17
   79.86750        1.2426118E-17
   80.01000        1.2428666E-17
   80.15250        1.2442220E-17
   80.29500        1.2458746E-17
   80.43750        1.2468449E-17
   80.58000        1.2465561E-17
   80.72250        1.2451723E-17
   80.86500        1.2434927E-17
   81.00750        1.2424690E-17
   81.15000        1.2426394E-17
   81.29250        1.2438170E-17
   81.43500        1.2452187E-17
   81.57750        1.2459516E-17
   81.72000        1.2455615E-17
   81.86250        1.2443075E-17
   82.00500        1.2430001E-17
   82.14750        1.2424999E-17
   82.29000        1.2431844E-17
   82.43250        1.2447053E-17
   82.57500        1.2461872E-17
   82.71750        1.2467461E-17
   82.86000        1.2460182E-17
   83.00250        1.2443782E-17
   83.14500        1.2427171E-17
   83.28750        1.2419144E-17
   83.43000        1.2423228E-17
   83.57250        1.2435756E-17
   83.71500        1.2448303E-17
   83.85750        1.2452976E-17
   84.00000        1.2447310E-17
   84.14250        1.2435803E-17
   84.28500        1.2427130E-17
   84.42750        1.2428742E-17
   84.57000        1.2442149E-17
   84.71250        1.2461768E-17
   84.85500        1.2478090E-17
   84.99750        1.2483275E-17
   85.14000        1.2475816E-17
   85.28250        1.2461449E-17
   85.42500        1.2449742E-17
   85.56750        1.2448413E-17
   85.71000        1.2458781E-17
   85.85250        1.2475091E-17
   85.99500        1.2488108E-17
   86.13750        1.2490790E-17
   86.28000        1.2482606E-17
   86.42250        1.2469866E-17
   86.56500        1.2461848E-17
   86.70750        1.2465074E-17
   86.85000        1.2479197E-17
   86.99250        1.2497019E-17
   87.13500        1.2508687E-17
   87.27750        1.2507557E-17
   87.42000        1.2494210E-17
   87.56250        1.2476203E-17
   87.70500        1.2463673E-17
   87.84750        1.2463408E-17
   87.99000        1.2474925E-17
   88.13250        1.2490901E-17
   88.27500        1.2501664E-17
   88.41750        1.2501038E-17
   88.56000        1.2490038E-17
   88.70250        1.2476159E-17
   88.84500        1.2468743E-17
   88.98750        1.2473184E-17
   89.13000        1.2487516E-17
   89.27250        1.2503440E-17
   89.41500        1.2511202E-17
   89.55750        1.2505415E-17
   89.70000        1.2488321E-17
   89.84250        1.2468549E-17
   89.98500        1.2456099E-17
   90.12750        1.2456546E-17
   90.27000        1.2467924E-17
   90.41250        1.2482116E-17
   90.55500        1.2489880E-17
   90.69750        1.2486473E-17
   90.84000        1.2474466E-17
   90.98250        1.2462111E-17
   91.12500        1.2458244E-17
   91.26750        1.2466834E-17
   91.41000        1.2484485E-17
   91.55250        1.2502402E-17
   91.69500        1.2511615E-17
   91.83750        1.2508345E-17
   91.98000        1.2496233E-17
   92.12250        1.2484146E-17
   92.26500        1.2480844E-17
   92.40750        1.2489746E-17
   92.55000        1.2506935E-17
   92.69250        1.2523560E-17
   92.83500        1.2531177E-17
   92.97750        1.2526783E-17
   93.12000        1.2514515E-17
   93.26250        1.2503004E-17
   93.40500        1.2500039E-17
   93.54750        1.2507783E-17
   93.69000        1.2521457E-17
   93.83250        1.2532297E-17
   93.97500        1.2532974E-17
   94.11750        1.2522178E-17
   94.26000        1.2505576E-17
   94.40250        1.2492532E-17
   94.54500        1.2490556E-17
   94.68750        1.2500841E-17
   94.83000        1.2517557E-17
   94.97250        1.2531356E-17
   95.11500        1.2534937E-17
   95.25750        1.2527334E-17
   95.40000        1.2514333E-17
   95.54250        1.2504789E-17
   95.68500        1.2505098E-17
   95.82750        1.2515196E-17
   95.97000        1.2528543E-17
   96.11250        1.2536116E-17
   96.25500        1.2531993E-17
   96.39750        1.2517147E-17
   96.54000        1.2499094E-17
   96.68250        1.2487578E-17
   96.82500        1.2488856E-17
   96.96750        1.2501994E-17
   97.11000        1.2519433E-17
   97.25250        1.2531479E-17
   97.39500        1.2532032E-17
   97.53750        1.2522117E-17
   97.68000        1.2509107E-17
   97.82250        1.2502120E-17
   97.96500        1.2506375E-17
   98.10750        1.2519941E-17
   98.25000        1.2534857E-17
   98.39250        1.2541961E-17
   98.53500        1.2536521E-17
   98.67750        1.2521260E-17
   98.82000        1.2504925E-17
   98.96250        1.2497205E-17
   99.10500        1.2503042E-17
   99.24750        1.2519719E-17
   99.39000        1.2538467E-17