  -30.00000        4.8966441E-18
  -29.85750        4.9019918E-18
  -29.71500        4.9117699E-18
  -29.57250        4.9243902E-18
  -29.43000        4.9379039E-18
  -29.28750        4.9503790E-18
  -29.14500        4.9602729E-18
  -29.00250        4.9667191E-18
  -28.86000        4.9696813E-18
  -28.71750        4.9699356E-18
  -28.57500        4.9688901E-18
  -28.43250        4.9682792E-18
  -28.29000        4.9697938E-18
  -28.14750        4.9747221E-18
  -28.00500        4.9836705E-18
  -27.86250        4.9964273E-18
  -27.72000        5.0119911E-18
  -27.57750        5.0287647E-18
  -27.43500        5.0448670E-18
  -27.29250        5.0585068E-18
  -27.15000        5.0683436E-18
  -27.00750        5.0737567E-18
  -26.86500        5.0749685E-18
  -26.72250        5.0730052E-18
  -26.58000        5.0694901E-18
  -26.43750        5.0663245E-18
  -26.29500        5.0653079E-18
  -26.15250        5.0677882E-18
  -26.01000        5.0743932E-18
  -25.86750        5.0849191E-18
  -25.72500        5.0983728E-18
  -25.58250        5.1131801E-18
  -25.44000        5.1275053E-18
  -25.29750        5.1396235E-18
  -25.15500        5.1482691E-18
  -25.01250        5.1528894E-18
  -24.87000        5.1537517E-18
  -24.72750        5.1518905E-18
  -24.58500        5.1488895E-18
  -24.44250        5.1465581E-18
  -24.30000        5.1465610E-18
  -24.15750        5.1500790E-18
  -24.01500        5.1575671E-18
  -23.87250        5.1686641E-18
  -23.73000        5.1822671E-18
  -23.58750        5.1967535E-18
  -23.44500        5.2103118E-18
  -23.30250        5.2213071E-18
  -23.16000        5.2286132E-18
  -23.01750        5.2318400E-18
  -22.87500        5.2314136E-18
  -22.73250        5.2284916E-18
  -22.59000        5.2247321E-18
  -22.44750        5.2219569E-18
  -22.30500        5.2217836E-18
  -22.16250        5.2252979E-18
  -22.02000        5.2328306E-18
  -21.87750        5.2438941E-18
  -21.73500        5.2572775E-18
  -21.59250        5.2712965E-18
  -21.45000        5.2841352E-18
  -21.30750        5.2942136E-18
  -21.16500        5.3005080E-18
  -21.02250        5.3027559E-18
  -20.88000        5.3015048E-18
  -20.73750        5.2980017E-18
  -20.59500        5.2939340E-18
  -20.45250        5.2910897E-18
  -20.31000        5.2909909E-18
  -20.16750        5.2945854E-18
  -20.02500        5.3020520E-18
  -19.88250        5.3127648E-18
  -19.74000        5.3254198E-18
  -19.59750        5.3383052E-18
  -19.45500        5.3496550E-18
  -19.31250        5.3580161E-18
  -19.17000        5.3625552E-18
  -19.02750        5.3632385E-18
  -18.88500        5.3608417E-18
  -18.74250        5.3568030E-18
  -18.60000        5.3529302E-18
  -18.45750        5.3510335E-18
  -18.31500        5.3525563E-18
  -18.17250        5.3582746E-18
  -18.03000        5.3681304E-18
  -17.88750        5.3812297E-18
  -17.74500        5.3960089E-18
  -17.60250        5.4105338E-18
  -17.46000        5.4228766E-18
  -17.31750        5.4314970E-18
  -17.17500        5.4355473E-18
  -17.03250        5.4350419E-18
  -16.89000        5.4308593E-18
  -16.74750        5.4245661E-18
  -16.60500        5.4181099E-18
  -16.46250        5.4134331E-18
  -16.32000        5.4120864E-18
  -16.17750        5.4149311E-18
  -16.03500        5.4219749E-18
  -15.89250        5.4323788E-18
  -15.75000        5.4446393E-18
  -15.60750        5.4568919E-18
  -15.46500        5.4672941E-18
  -15.32250        5.4743913E-18
  -15.18000        5.4774089E-18
  -15.03750        5.4764047E-18
  -14.89500        5.4722539E-18
  -14.75250        5.4664677E-18
  -14.61000        5.4608830E-18
  -14.46750        5.4572836E-18
  -14.32500        5.4570342E-18
  -14.18250        5.4607937E-18
  -14.04000        5.4683773E-18
  -13.89750        5.4787898E-18
  -13.75500        5.4904225E-18
  -13.61250        5.5013748E-18
  -13.47000        5.5098414E-18
  -13.32750        5.5144707E-18
  -13.18500        5.5146403E-18
  -13.04250        5.5105829E-18
  -12.90000        5.5033443E-18
  -12.75750        5.4945840E-18
  -12.61500        5.4862510E-18
  -12.47250        5.4802093E-18
  -12.33000        5.4778766E-18
  -12.18750        5.4799533E-18
  -12.04500        5.4862953E-18
  -11.90250        5.4959567E-18
  -11.76000        5.5073942E-18
  -11.61750        5.5187898E-18
  -11.47500        5.5284273E-18
  -11.33250        5.5350485E-18
  -11.19000        5.5381020E-18
  -11.04750        5.5378526E-18
  -10.90500        5.5353136E-18
  -10.76250        5.5320297E-18
  -10.62000        5.5297479E-18
  -10.47750        5.5300482E-18
  -10.33500        5.5340029E-18
  -10.19250        5.5419422E-18
  -10.05000        5.5533610E-18
  -9.907500        5.5669950E-18
  -9.765000        5.5810476E-18
  -9.622500        5.5935301E-18
  -9.480000        5.6026432E-18
  -9.337500        5.6071294E-18
  -9.195000        5.6065189E-18
  -9.052500        5.6012266E-18
  -8.910000        5.5924718E-18
  -8.767500        5.5820398E-18
  -8.625000        5.5719349E-18
  -8.482500        5.5639985E-18
  -8.340000        5.5595587E-18
  -8.197500        5.5591947E-18
  -8.055000        5.5626527E-18
  -7.912500        5.5689252E-18
  -7.770000        5.5764790E-18
  -7.627500        5.5835833E-18
  -7.485000        5.5886704E-18
  -7.342500        5.5906644E-18
  -7.200000        5.5891998E-18
  -7.057500        5.5847016E-18
  -6.915000        5.5783009E-18
  -6.772500        5.5716016E-18
  -6.630000        5.5663490E-18
  -6.487500        5.5640664E-18
  -6.345000        5.5657377E-18
  -6.202500        5.5715995E-18
  -6.060000        5.5810873E-18
  -5.917500        5.5929478E-18
  -5.775000        5.6054891E-18
  -5.632500        5.6169216E-18
  -5.490000        5.6257091E-18
  -5.347500        5.6308711E-18
  -5.205000        5.6321710E-18
  -5.062500        5.6301502E-18
  -4.920000        5.6260119E-18
  -4.777500        5.6213677E-18
  -4.635000        5.6179063E-18
  -4.492500        5.6170419E-18
  -4.350000        5.6196202E-18
  -4.207500        5.6257381E-18
  -4.065000        5.6347192E-18
  -3.922500        5.6452541E-18
  -3.780000        5.6556708E-18
  -3.637500        5.6642843E-18
  -3.495000        5.6697561E-18
  -3.352500        5.6713744E-18
  -3.210000        5.6692130E-18
  -3.067500        5.6641279E-18
  -2.925000        5.6575874E-18
  -2.782500        5.6513869E-18
  -2.640000        5.6472927E-18
  -2.497500        5.6466885E-18
  -2.355000        5.6502942E-18
  -2.212500        5.6580159E-18
  -2.070000        5.6689492E-18
  -1.927500        5.6815496E-18
  -1.785000        5.6939296E-18
  -1.642500        5.7042288E-18
  -1.500000        5.7109836E-18
  -1.357500        5.7134176E-18
  -1.215000        5.7115978E-18
  -1.072500        5.7064163E-18
 -0.9300000        5.6994080E-18
 -0.7875000        5.6924357E-18
 -0.6450000        5.6873175E-18
 -0.5025000        5.6854626E-18
 -0.3600000        5.6875963E-18
 -0.2175000        5.6936227E-18
 -7.5000003E-02    5.7026477E-18
  6.7500003E-02    5.7131632E-18
  0.2100000        5.7233474E-18
  0.3525000        5.7314315E-18
  0.4950000        5.7360534E-18
  0.6375000        5.7365344E-18
  0.7800000        5.7330201E-18
  0.9225000        5.7264572E-18
   1.065000        5.7184026E-18
   1.207500        5.7107135E-18
   1.350000        5.7051685E-18
   1.492500        5.7031117E-18
   1.635000        5.7051826E-18
   1.777500        5.7111949E-18
   1.920000        5.7201876E-18
   2.062500        5.7306246E-18
   2.205000        5.7407116E-18
   2.347500        5.7487588E-18
   2.490000        5.7535147E-18
   2.632500        5.7544147E-18
   2.775000        5.7516895E-18
   2.917500        5.7463199E-18
   3.060000        5.7398356E-18
   3.202500        5.7340127E-18
   3.345000        5.7305112E-18
   3.487500        5.7305365E-18
   3.630000        5.7345934E-18
   3.772500        5.7423792E-18
   3.915000        5.7528501E-18
   4.057500        5.7644356E-18
   4.200000        5.7753697E-18
   4.342500        5.7840484E-18
   4.485000        5.7893631E-18
   4.627500        5.7909173E-18
   4.770000        5.7891017E-18
   4.912500        5.7850080E-18
   5.055000        5.7801983E-18
   5.197500        5.7763904E-18
   5.340000        5.7751017E-18
   5.482500        5.7773375E-18
   5.625000        5.7833764E-18
   5.767500        5.7926974E-18
   5.910000        5.8040703E-18
   6.052500        5.8157911E-18
   6.195000        5.8260196E-18
   6.337500        5.8331515E-18
   6.480000        5.8361480E-18
   6.622500        5.8347542E-18
   6.765000        5.8295566E-18
   6.907500        5.8218721E-18
   7.050000        5.8134911E-18
   7.192500        5.8063285E-18
   7.335000        5.8020541E-18
   7.477500        5.8017774E-18
   7.620000        5.8058426E-18
   7.762500        5.8137728E-18
   7.905000        5.8243772E-18
   8.047500        5.8359863E-18
   8.190000        5.8467860E-18
   8.332500        5.8551744E-18
   8.475000        5.8600800E-18
   8.617500        5.8611706E-18
   8.760000        5.8589091E-18
   8.902500        5.8544473E-18
   9.045000        5.8493750E-18
   9.187500        5.8453769E-18
   9.330000        5.8438755E-18
   9.472500        5.8457292E-18
   9.615000        5.8510575E-18
   9.757500        5.8592168E-18
   9.900000        5.8689370E-18
   10.04250        5.8785803E-18
   10.18500        5.8864757E-18
   10.32750        5.8912548E-18
   10.47000        5.8921320E-18
   10.61250        5.8890706E-18
   10.75500        5.8828002E-18
   10.89750        5.8746822E-18
   11.04000        5.8664497E-18
   11.18250        5.8598612E-18
   11.32500        5.8563490E-18
   11.46750        5.8567291E-18
   11.61000        5.8610399E-18
   11.75250        5.8685412E-18
   11.89500        5.8778747E-18
   12.03750        5.8873575E-18
   12.18000        5.8953324E-18
   12.32250        5.9005146E-18
   12.46500        5.9022501E-18
   12.60750        5.9006478E-18
   12.75000        5.8965541E-18
   12.89250        5.8913817E-18
   13.03500        5.8868236E-18
   13.17750        5.8845099E-18
   13.32000        5.8856730E-18
   13.46250        5.8908809E-18
   13.60500        5.8999034E-18
   13.74750        5.9117353E-18
   13.89000        5.9247792E-18
   14.03250        5.9371579E-18
   14.17500        5.9470857E-18
   14.31750        5.9532362E-18
   14.46000        5.9550060E-18
   14.60250        5.9526390E-18
   14.74500        5.9471767E-18
   14.88750        5.9402478E-18
   15.03000        5.9337425E-18
   15.17250        5.9294457E-18
   15.31500        5.9286892E-18
   15.45750        5.9320989E-18
   15.60000        5.9394769E-18
   15.74250        5.9498423E-18
   15.88500        5.9616247E-18
   16.02750        5.9729686E-18
   16.17000        5.9821053E-18
   16.31250        5.9877040E-18
   16.45500        5.9891425E-18
   16.59750        5.9866374E-18
   16.74000        5.9811945E-18
   16.88250        5.9744026E-18
   17.02500        5.9681027E-18
   17.16750        5.9640119E-18
   17.31000        5.9633742E-18
   17.45250        5.9667156E-18
   17.59500        5.9737483E-18
   17.73750        5.9834378E-18
   17.88000        5.9942139E-18
   18.02250        6.0042898E-18
   18.16500        6.0120099E-18
   18.30750        6.0161830E-18
   18.45000        6.0163133E-18
   18.59250        6.0127076E-18
   18.73500        6.0064177E-18
   18.87750        5.9990335E-18
   19.02000        5.9923640E-18
   19.16250        5.9880676E-18
   19.30500        5.9873169E-18
   19.44750        5.9905574E-18
   19.59000        5.9974259E-18
   19.73250        6.0068342E-18
   19.87500        6.0172038E-18
   20.01750        6.0267924E-18
   20.16000        6.0340522E-18
   20.30250        6.0379346E-18
   20.44500        6.0380955E-18
   20.58750        6.0349530E-18
   20.73000        6.0296011E-18
   20.87250        6.0235892E-18
   21.01500        6.0186079E-18
   21.15750        6.0161495E-18
   21.30000        6.0172000E-18
   21.44250        6.0220287E-18
   21.58500        6.0301231E-18
   21.72750        6.0402896E-18
   21.87000        6.0508940E-18
   22.01250        6.0602014E-18
   22.15500        6.0667374E-18
   22.29750        6.0695916E-18
   22.44000        6.0686011E-18
   22.58250        6.0643787E-18
   22.72500        6.0581798E-18
   22.86750        6.0516467E-18
   23.01000        6.0464773E-18
   23.15250        6.0440913E-18
   23.29500        6.0453469E-18
   23.43750        6.0503729E-18
   23.58000        6.0585380E-18
   23.72250        6.0685647E-18
   23.86500        6.0787799E-18
   24.00750        6.0874475E-18
   24.15000        6.0931187E-18
   24.29250        6.0949339E-18
   24.43500        6.0928048E-18
   24.57750        6.0874355E-18
   24.72000        6.0801774E-18
   24.86250        6.0727527E-18
   25.00500        6.0669037E-18
   25.14750        6.0640412E-18
   25.29000        6.0649747E-18
   25.43250        6.0697616E-18
   25.57500        6.0777133E-18
   25.71750        6.0875414E-18
   25.86000        6.0976198E-18
   26.00250        6.1063064E-18
   26.14500        6.1122696E-18
   26.28750        6.1147540E-18
   26.43000        6.1137366E-18
   26.57250        6.1099349E-18
   26.71500        6.1046653E-18
   26.85750        6.0995715E-18
   27.00000        6.0962814E-18
   27.14250        6.0960597E-18
   27.28500        6.0995426E-18
   27.42750        6.1066026E-18
   27.57000        6.1163749E-18
   27.71250        6.1274417E-18
   27.85500        6.1381231E-18
   27.99750        6.1468176E-18
   28.14000        6.1523179E-18
   28.28250        6.1540455E-18
   28.42500        6.1521604E-18
   28.56750        6.1475290E-18
   28.71000        6.1415518E-18
   28.85250        6.1358918E-18
   28.99500        6.1321372E-18
   29.13750        6.1314821E-18
   29.28000        6.1344744E-18
   29.42250        6.1408950E-18
   29.56500        6.1497967E-18
   29.70750        6.1596989E-18
   29.85000        6.1688971E-18
   29.99250        6.1758206E-18
   30.13500        6.1793576E-18
   30.27750        6.1790809E-18
   30.42000        6.1753301E-18
   30.56250        6.1691345E-18
   30.70500        6.1620017E-18
   30.84750        6.1556138E-18
   30.99000        6.1514961E-18
   31.13250        6.1507157E-18
   31.27500        6.1536671E-18
   31.41750        6.1599896E-18
   31.56000        6.1686283E-18
   31.70250        6.1780366E-18
   31.84500        6.1864888E-18
   31.98750        6.1924329E-18
   32.13000        6.1948197E-18
   32.27250        6.1933304E-18
   32.41500        6.1884517E-18
   32.55750        6.1813809E-18
   32.70000        6.1737833E-18
   32.84250        6.1674529E-18
   32.98500        6.1639531E-18
   33.12750        6.1643121E-18
   33.27000        6.1688227E-18
   33.41250        6.1769923E-18
   33.55500        6.1876373E-18
   33.69750        6.1991066E-18
   33.84000        6.2095936E-18
   33.98250        6.2174745E-18
   34.12500        6.2216253E-18
   34.26750        6.2216394E-18
   34.41000        6.2179096E-18
   34.55250        6.2115556E-18
   34.69500        6.2041937E-18
   34.83750        6.1976086E-18
   34.98000        6.1933862E-18
   35.12250        6.1925983E-18
   35.26500        6.1955931E-18
   35.40750        6.2019446E-18
   35.55000        6.2105630E-18
   35.69250        6.2199350E-18
   35.83500        6.2284330E-18
   35.97750        6.2346468E-18
   36.12000        6.2376540E-18
   36.26250        6.2371995E-18
   36.40500        6.2337444E-18
   36.54750        6.2283747E-18
   36.69000        6.2225915E-18
   36.83250        6.2180101E-18
   36.97500        6.2160299E-18
   37.11750        6.2175436E-18
   37.26000        6.2227424E-18
   37.40250        6.2310738E-18
   37.54500        6.2413548E-18
   37.68750        6.2520246E-18
   37.83000        6.2614727E-18
   37.97250        6.2683755E-18
   38.11500        6.2719651E-18
   38.25750        6.2721710E-18
   38.40000        6.2696241E-18
   38.54250        6.2655114E-18
   38.68500        6.2613337E-18
   38.82750        6.2585991E-18
   38.97000        6.2585172E-18
   39.11250        6.2617510E-18
   39.25500        6.2682667E-18
   39.39750        6.2773223E-18
   39.54000        6.2876017E-18
   39.68250        6.2974683E-18
   39.82500        6.3053037E-18
   39.96750        6.3098446E-18
   40.11000        6.3104550E-18
   40.25250        6.3072658E-18
   40.39500        6.3011476E-18
   40.53750        6.2935326E-18
   40.68000        6.2861173E-18
   40.82250        6.2805177E-18
   40.96500        6.2779497E-18
   41.10750        6.2789965E-18
   41.25000        6.2834989E-18
   41.39250        6.2905940E-18
   41.53500        6.2988811E-18
   41.67750        6.3066938E-18
   41.82000        6.3124316E-18
   41.96250        6.3148775E-18
   42.10500        6.3134564E-18
   42.24750        6.3083689E-18
   42.39000        6.3005669E-18
   42.53250        6.2915730E-18
   42.67500        6.2831742E-18
   42.81750        6.2770638E-18
   42.96000        6.2745012E-18
   43.10250        6.2760704E-18
   43.24500        6.2815810E-18
   43.38750        6.2901337E-18
   43.53000        6.3003175E-18
   43.67250        6.3105005E-18
   43.81500        6.3191479E-18
   43.95750        6.3251139E-18
   44.10000        6.3278514E-18
   44.24250        6.3275057E-18
   44.38500        6.3248815E-18
   44.52750        6.3212708E-18
   44.67000        6.3181854E-18
   44.81250        6.3170402E-18
   44.95500        6.3188389E-18
   45.09750        6.3239525E-18
   45.24000        6.3320279E-18
   45.38250        6.3420550E-18
   45.52500        6.3525804E-18
   45.66750        6.3620124E-18
   45.81000        6.3689487E-18
   45.95250        6.3724584E-18
   46.09500        6.3722578E-18
   46.23750        6.3687535E-18
   46.38000        6.3629524E-18
   46.52250        6.3562634E-18
   46.66500        6.3502275E-18
   46.80750        6.3462252E-18
   46.95000        6.3452140E-18
   47.09250        6.3475396E-18
   47.23500        6.3528604E-18
   47.37750        6.3602165E-18
   47.52000        6.3682220E-18
   47.66250        6.3753568E-18
   47.80500        6.3802992E-18
   47.94750        6.3822121E-18
   48.09000        6.3809258E-18
   48.23250        6.3769777E-18
   48.37500        6.3714947E-18
   48.51750        6.3659559E-18
   48.66000        6.3618870E-18
   48.80250        6.3605544E-18
   48.94500        6.3627138E-18
   49.08750        6.3684611E-18
   49.23000        6.3772027E-18
   49.37250        6.3877526E-18
   49.51500        6.3985407E-18
   49.65750        6.4078998E-18
   49.80000        6.4143812E-18
   49.94250        6.4170430E-18
   50.08500        6.4156467E-18
   50.22750        6.4107167E-18
   50.37000        6.4034442E-18
   50.51250        6.3954462E-18
   50.65500        6.3884387E-18
   50.79750        6.3838929E-18
   50.94000        6.3827489E-18
   51.08250        6.3852528E-18
   51.22500        6.3909327E-18
   51.36750        6.3987185E-18
   51.51000        6.4071706E-18
   51.65250        6.4147679E-18
   51.79500        6.4202012E-18
   51.93750        6.4226286E-18
   52.08000        6.4218436E-18
   52.22250        6.4183206E-18
   52.36500        6.4131288E-18
   52.50750        6.4077257E-18
   52.65000        6.4036572E-18
   52.79250        6.4022332E-18
   52.93500        6.4042474E-18
   53.07750        6.4098052E-18
   53.22000        6.4183057E-18
   53.36250        6.4285748E-18
   53.50500        6.4391168E-18
   53.64750        6.4484279E-18
   53.79000        6.4552910E-18
   53.93250        6.4590051E-18
   54.07500        6.4594968E-18
   54.21750        6.4573143E-18
   54.36000        6.4535010E-18
   54.50250        6.4493775E-18
   54.64500        6.4462772E-18
   54.78750        6.4452706E-18
   54.93000        6.4469332E-18
   55.07250        6.4512130E-18
   55.21500        6.4574256E-18
   55.35750        6.4643892E-18
   55.50000        6.4706811E-18
   55.64250        6.4749527E-18
   55.78500        6.4762373E-18
   55.92750        6.4741702E-18
   56.07000        6.4690768E-18
   56.21250        6.4619081E-18
   56.35500        6.4540470E-18
   56.49750        6.4470349E-18
   56.64000        6.4422724E-18
   56.78250        6.4407562E-18
   56.92500        6.4428945E-18
   57.06750        6.4484329E-18
   57.21000        6.4564929E-18
   57.35250        6.4657309E-18
   57.49500        6.4745900E-18
   57.63750        6.4816016E-18
   57.78000        6.4856858E-18
   57.92250        6.4863827E-18
   58.06500        6.4839553E-18
   58.20750        6.4793413E-18
   58.35000        6.4739497E-18
   58.49250        6.4693601E-18
   58.63500        6.4669845E-18
   58.77750        6.4677753E-18
   58.92000        6.4720390E-18
   59.06250        6.4793839E-18
   59.20500        6.4888092E-18
   59.34750        6.4989045E-18
   59.49000        6.5081156E-18
   59.63250        6.5150370E-18
   59.77500        6.5186775E-18
   59.91750        6.5186547E-18
   60.06000        6.5152831E-18
   60.20250        6.5095284E-18
   60.34500        6.5028308E-18
   60.48750        6.4968188E-18
   60.63000        6.4929757E-18
   60.77250        6.4923264E-18
   60.91500        6.4952244E-18
   61.05750        6.5012872E-18
   61.20000        6.5094879E-18
   61.34250        6.5183896E-18
   61.48500        6.5264517E-18
   61.62750        6.5323446E-18
   61.77000        6.5352116E-18
   61.91250        6.5348269E-18
   62.05500        6.5316307E-18
   62.19750        6.5266469E-18
   62.34000        6.5212868E-18
   62.48250        6.5170777E-18
   62.62500        6.5153634E-18
   62.76750        6.5170206E-18
   62.91000        6.5222600E-18
   63.05250        6.5305558E-18
   63.19500        6.5407318E-18
   63.33750        6.5511981E-18
   63.48000        6.5602751E-18
   63.62250        6.5665472E-18
   63.76500        6.5691512E-18
   63.90750        6.5679414E-18
   64.05000        6.5634999E-18
   64.19250        6.5569987E-18
   64.33500        6.5499515E-18
   64.47750        6.5439168E-18
   64.62000        6.5401953E-18
   64.76250        6.5395915E-18
   64.90500        6.5422596E-18
   65.04750        6.5476697E-18
   65.19000        6.5547078E-18
   65.33250        6.5618898E-18
   65.47500        6.5676668E-18
   65.61750        6.5707555E-18
   65.76000        6.5704296E-18
   65.90250        6.5666912E-18
   66.04500        6.5602875E-18
   66.18750        6.5525600E-18
   66.33000        6.5451613E-18
   66.47250        6.5397110E-18
   66.61500        6.5374665E-18
   66.75750        6.5390828E-18
   66.90000        6.5444971E-18
   67.04250        6.5529542E-18
   67.18500        6.5631566E-18
   67.32750        6.5735055E-18
   67.47000        6.5823952E-18
   67.61250        6.5885076E-18
   67.75500        6.5910649E-18
   67.89750        6.5899833E-18
   68.04000        6.5859028E-18
   68.18250        6.5800630E-18
   68.32500        6.5740502E-18
   68.46750        6.5694626E-18
   68.61000        6.5675709E-18
   68.75250        6.5690519E-18
   68.89500        6.5738624E-18
   69.03750        6.5812669E-18
   69.18000        6.5900172E-18
   69.32250        6.5986228E-18
   69.46500        6.6056567E-18
   69.60750        6.6100292E-18
   69.75000        6.6111885E-18
   69.89250        6.6092169E-18
   70.03500        6.6048143E-18
   70.17750        6.5991696E-18
   70.32000        6.5937396E-18
   70.46250        6.5899660E-18
   70.60500        6.5889820E-18
   70.74750        6.5913701E-18
   70.89000        6.5970243E-18
   71.03250        6.6051646E-18
   71.17500        6.6144977E-18
   71.31750        6.6234953E-18
   71.46000        6.6307203E-18
   71.60250        6.6351226E-18
   71.74500        6.6362401E-18
   71.88750        6.6342664E-18
   72.03000        6.6299879E-18
   72.17250        6.6246079E-18
   72.31500        6.6195091E-18
   72.45750        6.6159903E-18
   72.60000        6.6150242E-18
   72.74250        6.6170718E-18
   72.88500        6.6219849E-18
   73.02750        6.6290209E-18
   73.17000        6.6369779E-18
   73.31250        6.6444366E-18
   73.45500        6.6500573E-18
   73.59750        6.6528735E-18
   73.74000        6.6525074E-18
   73.88250        6.6492512E-18
   74.02500        6.6439974E-18
   74.16750        6.6380326E-18
   74.31000        6.6327622E-18
   74.45250        6.6294142E-18
   74.59500        6.6288033E-18
   74.73750        6.6311844E-18
   74.88000        6.6362186E-18
   75.02250        6.6430449E-18
   75.16500        6.6504461E-18
   75.30750        6.6570702E-18
   75.45000        6.6616937E-18
   75.59250        6.6634684E-18
   75.73500        6.6621102E-18
   75.87750        6.6579830E-18
   76.02000        6.6520471E-18
   76.16250        6.6456675E-18
   76.30500        6.6403313E-18
   76.44750        6.6373258E-18
   76.59000        6.6374668E-18
   76.73250        6.6409348E-18
   76.87500        6.6472540E-18
   77.01750        6.6554146E-18
   77.16000        6.6640884E-18
   77.30250        6.6718961E-18
   77.44500        6.6776707E-18
   77.58750        6.6806663E-18
   77.73000        6.6806936E-18
   77.87250        6.6781562E-18
   78.01500        6.6739810E-18
   78.15750        6.6694502E-18
   78.30000        6.6659512E-18
   78.44250        6.6646885E-18
   78.58500        6.6664223E-18
   78.72750        6.6712894E-18
   78.87000        6.6787634E-18
   79.01250        6.6877664E-18
   79.15500        6.6969043E-18
   79.29750        6.7047699E-18
   79.44000        6.7102372E-18
   79.58250        6.7126844E-18
   79.72500        6.7120955E-18
   79.86750        6.7090411E-18
   80.01000        6.7045474E-18
   80.15250        6.6998933E-18
   80.29500        6.6963658E-18
   80.43750        6.6950175E-18
   80.58000        6.6964609E-18
   80.72250        6.7007329E-18
   80.86500        6.7072713E-18
   81.00750        6.7150080E-18
   81.15000        6.7225771E-18
   81.29250        6.7286052E-18
   81.43500        6.7320090E-18
   81.57750        6.7322332E-18
   81.72000        6.7293653E-18
   81.86250        6.7241082E-18
   82.00500        6.7176107E-18
   82.14750        6.7112120E-18
   82.29000        6.7061650E-18
   82.43250        6.7033927E-18
   82.57500        6.7033220E-18
   82.71750        6.7058184E-18
   82.86000        6.7102211E-18
   83.00250        6.7154683E-18
   83.14500        6.7202982E-18
   83.28750        6.7234944E-18
   83.43000        6.7241413E-18
   83.57250        6.7218276E-18
   83.71500        6.7167628E-18
   83.85750        6.7097595E-18
   84.00000        6.7020742E-18
   84.14250        6.6951449E-18
   84.28500        6.6902856E-18
   84.42750        6.6884017E-18
   84.57000        6.6898166E-18
   84.71250        6.6942209E-18
   84.85500        6.7007548E-18
   84.99750        6.7081998E-18
   85.14000        6.7152148E-18
   85.28250        6.7205844E-18
   85.42500        6.7234398E-18
   85.56750        6.7234105E-18
   85.71000        6.7206990E-18
   85.85250        6.7160523E-18
   85.99500        6.7106334E-18
   86.13750        6.7057965E-18
   86.28000        6.7028120E-18
   86.42250        6.7025883E-18
   86.56500        6.7054685E-18
   86.70750        6.7111479E-18
   86.85000        6.7187406E-18
   86.99250        6.7269768E-18
   87.13500        6.7344794E-18
   87.27750        6.7400492E-18
   87.42000        6.7428992E-18
   87.56250        6.7427880E-18
   87.70500        6.7400463E-18
   87.84750        6.7354989E-18
   87.99000        6.7303063E-18
   88.13250        6.7257580E-18
   88.27500        6.7230370E-18
   88.41750        6.7230010E-18
   88.56000        6.7260074E-18
   88.70250        6.7318307E-18
   88.84500        6.7396939E-18
   88.98750        6.7484285E-18
   89.13000        6.7567210E-18
   89.27250        6.7634117E-18
   89.41500        6.7677478E-18
   89.55750        6.7695452E-18
   89.70000        6.7692156E-18
   89.84250        6.7676535E-18
   89.98500        6.7660293E-18
   90.12750        6.7655334E-18
   90.27000        6.7671348E-18
   90.41250        6.7713886E-18
   90.55500        6.7783270E-18
   90.69750        6.7874404E-18
   90.84000        6.7977525E-18
   90.98250        6.8079826E-18
   91.12500        6.8167756E-18
   91.26750        6.8229678E-18
   91.41000        6.8258299E-18
   91.55250        6.8252385E-18
   91.69500        6.8217192E-18
   91.83750        6.8163479E-18
   91.98000        6.8105258E-18
   92.12250        6.8056806E-18
   92.26500        6.8029708E-18
   92.40750        6.8030547E-18
   92.55000        6.8059867E-18
   92.69250        6.8112331E-18
   92.83500        6.8178050E-18
   92.97750        6.8244713E-18
   93.12000        6.8299976E-18
   93.26250        6.8333862E-18
   93.40500        6.8340703E-18
   93.54750        6.8320375E-18
   93.69000        6.8278532E-18
   93.83250        6.8225667E-18
   93.97500        6.8175109E-18
   94.11750        6.8140215E-18
   94.26000        6.8131443E-18
   94.40250        6.8153925E-18
   94.54500        6.8206220E-18
   94.68750        6.8280558E-18
   94.83000        6.8364517E-18
   94.97250        6.8443637E-18
   95.11500        6.8504356E-18
   95.25750        6.8536587E-18
   95.40000        6.8535487E-18
   95.54250        6.8502094E-18
   95.68500        6.8442988E-18
   95.82750        6.8368972E-18
   95.97000        6.8293090E-18
   96.11250        6.8228231E-18
   96.25500        6.8184709E-18
   96.39750        6.8168186E-18
   96.54000        6.8178505E-18
   96.68250        6.8209657E-18
   96.82500        6.8251111E-18
   96.96750        6.8290212E-18
   97.11000        6.8315093E-18
   97.25250        6.8317376E-18
   97.39500        6.8294050E-18
   97.53750        6.8247963E-18
   97.68000        6.8187066E-18
   97.82250        6.8122583E-18
   97.96500        6.8066637E-18
   98.10750        6.8029906E-18
   98.25000        6.8019624E-18
   98.39250        6.8038306E-18
   98.53500        6.8083214E-18
   98.67750        6.8146754E-18
   98.82000        6.8217709E-18
   98.96250        6.8283222E-18
   99.10500        6.8331281E-18
   99.24750        6.8353189E-18
   99.39000        6.8345438E-18