  -30.00000        9.8404491E-18
  -29.85750        9.8575114E-18
  -29.71500        9.8833467E-18
  -29.57250        9.9064250E-18
  -29.43000        9.9186384E-18
  -29.28750        9.9198287E-18
  -29.14500        9.9174960E-18
  -29.00250        9.9219024E-18
  -28.86000        9.9395578E-18
  -28.71750        9.9690252E-18
  -28.57500        1.0001578E-17
  -28.43250        1.0026313E-17
  -28.29000        1.0036636E-17
  -28.14750        1.0034205E-17
  -28.00500        1.0027964E-17
  -27.86250        1.0028841E-17
  -27.72000        1.0043283E-17
  -27.57750        1.0069506E-17
  -27.43500        1.0098687E-17
  -27.29250        1.0120337E-17
  -27.15000        1.0128631E-17
  -27.00750        1.0125850E-17
  -26.86500        1.0120927E-17
  -26.72250        1.0123967E-17
  -26.58000        1.0140109E-17
  -26.43750        1.0166419E-17
  -26.29500        1.0193692E-17
  -26.15250        1.0212047E-17
  -26.01000        1.0216923E-17
  -25.86750        1.0211843E-17
  -25.72500        1.0206278E-17
  -25.58250        1.0209913E-17
  -25.44000        1.0226795E-17
  -25.29750        1.0252896E-17
  -25.15500        1.0278560E-17
  -25.01250        1.0294347E-17
  -24.87000        1.0296733E-17
  -24.72750        1.0290215E-17
  -24.58500        1.0284560E-17
  -24.44250        1.0288874E-17
  -24.30000        1.0306094E-17
  -24.15750        1.0331248E-17
  -24.01500        1.0354520E-17
  -23.87250        1.0367271E-17
  -23.73000        1.0367341E-17
  -23.58750        1.0360403E-17
  -23.44500        1.0356541E-17
  -23.30250        1.0364101E-17
  -23.16000        1.0384558E-17
  -23.01750        1.0411518E-17
  -22.87500        1.0434483E-17
  -22.73250        1.0445122E-17
  -22.59000        1.0442279E-17
  -22.44750        1.0432667E-17
  -22.30500        1.0426832E-17
  -22.16250        1.0432806E-17
  -22.02000        1.0451277E-17
  -21.87750        1.0475211E-17
  -21.73500        1.0494142E-17
  -21.59250        1.0500557E-17
  -21.45000        1.0494498E-17
  -21.30750        1.0483587E-17
  -21.16500        1.0478438E-17
  -21.02250        1.0486198E-17
  -20.88000        1.0506131E-17
  -20.73750        1.0529926E-17
  -20.59500        1.0546579E-17
  -20.45250        1.0548944E-17
  -20.31000        1.0538028E-17
  -20.16750        1.0522443E-17
  -20.02500        1.0513342E-17
  -19.88250        1.0517850E-17
  -19.74000        1.0534947E-17
  -19.59750        1.0556247E-17
  -19.45500        1.0571185E-17
  -19.31250        1.0573490E-17
  -19.17000        1.0565035E-17
  -19.02750        1.0554712E-17
  -18.88500        1.0553038E-17
  -18.74250        1.0565706E-17
  -18.60000        1.0589981E-17
  -18.45750        1.0616118E-17
  -18.31500        1.0632972E-17
  -18.17250        1.0634464E-17
  -18.03000        1.0623042E-17
  -17.88750        1.0608087E-17
  -17.74500        1.0600249E-17
  -17.60250        1.0605132E-17
  -17.46000        1.0620097E-17
  -17.31750        1.0636089E-17
  -17.17500        1.0643339E-17
  -17.03250        1.0637474E-17
  -16.89000        1.0622352E-17
  -16.74750        1.0607873E-17
  -16.60500        1.0604139E-17
  -16.46250        1.0615430E-17
  -16.32000        1.0637655E-17
  -16.17750        1.0660798E-17
  -16.03500        1.0674862E-17
  -15.89250        1.0675752E-17
  -15.75000        1.0667561E-17
  -15.60750        1.0659915E-17
  -15.46500        1.0662022E-17
  -15.32250        1.0677023E-17
  -15.18000        1.0700074E-17
  -15.03750        1.0721286E-17
  -14.89500        1.0731725E-17
  -14.75250        1.0728815E-17
  -14.61000        1.0717892E-17
  -14.46750        1.0708939E-17
  -14.32500        1.0710526E-17
  -14.18250        1.0724607E-17
  -14.04000        1.0745338E-17
  -13.89750        1.0762645E-17
  -13.75500        1.0768351E-17
  -13.61250        1.0761170E-17
  -13.47000        1.0747535E-17
  -13.32750        1.0737746E-17
  -13.18500        1.0739786E-17
  -13.04250        1.0754536E-17
  -12.90000        1.0775289E-17
  -12.75750        1.0791858E-17
  -12.61500        1.0796782E-17
  -12.47250        1.0789860E-17
  -12.33000        1.0778257E-17
  -12.18750        1.0772119E-17
  -12.04500        1.0778340E-17
  -11.90250        1.0796284E-17
  -11.76000        1.0818059E-17
  -11.61750        1.0833237E-17
  -11.47500        1.0835147E-17
  -11.33250        1.0824969E-17
  -11.19000        1.0811117E-17
  -11.04750        1.0804273E-17
  -10.90500        1.0811021E-17
  -10.76250        1.0829942E-17
  -10.62000        1.0852500E-17
  -10.47750        1.0868201E-17
  -10.33500        1.0870933E-17
  -10.19250        1.0862628E-17
  -10.05000        1.0852065E-17
  -9.907500        1.0849503E-17
  -9.765000        1.0860388E-17
  -9.622500        1.0881947E-17
  -9.480000        1.0904735E-17
  -9.337500        1.0918245E-17
  -9.195000        1.0917212E-17
  -9.052500        1.0904835E-17
  -8.910000        1.0890944E-17
  -8.767500        1.0886217E-17
  -8.625000        1.0895875E-17
  -8.482500        1.0916647E-17
  -8.340000        1.0938782E-17
  -8.197500        1.0951931E-17
  -8.055000        1.0951320E-17
  -7.912500        1.0940541E-17
  -7.770000        1.0929282E-17
  -7.627500        1.0927389E-17
  -7.485000        1.0938839E-17
  -7.342500        1.0959272E-17
  -7.200000        1.0978561E-17
  -7.057500        1.0986895E-17
  -6.915000        1.0980704E-17
  -6.772500        1.0964881E-17
  -6.630000        1.0949959E-17
  -6.487500        1.0945940E-17
  -6.345000        1.0956472E-17
  -6.202500        1.0976845E-17
  -6.060000        1.0996970E-17
  -5.917500        1.1007529E-17
  -5.775000        1.1005556E-17
  -5.632500        1.0996123E-17
  -5.490000        1.0989127E-17
  -5.347500        1.0993157E-17
  -5.205000        1.1010174E-17
  -5.062500        1.1034215E-17
  -4.920000        1.1054906E-17
  -4.777500        1.1063656E-17
  -4.635000        1.1058790E-17
  -4.492500        1.1046527E-17
  -4.350000        1.1037223E-17
  -4.207500        1.1039155E-17
  -4.065000        1.1053605E-17
  -3.922500        1.1074191E-17
  -3.780000        1.1090824E-17
  -3.637500        1.1095876E-17
  -3.495000        1.1088810E-17
  -3.352500        1.1076478E-17
  -3.210000        1.1068919E-17
  -3.067500        1.1073223E-17
  -2.925000        1.1089187E-17
  -2.782500        1.1109425E-17
  -2.640000        1.1123850E-17
  -2.497500        1.1125813E-17
  -2.355000        1.1116189E-17
  -2.212500        1.1102891E-17
  -2.070000        1.1096126E-17
  -1.927500        1.1102239E-17
  -1.785000        1.1119877E-17
  -1.642500        1.1140800E-17
  -1.500000        1.1154862E-17
  -1.357500        1.1156136E-17
  -1.215000        1.1146495E-17
  -1.072500        1.1134449E-17
 -0.9300000        1.1129970E-17
 -0.7875000        1.1138395E-17
 -0.6450000        1.1157145E-17
 -0.5025000        1.1177245E-17
 -0.3600000        1.1188746E-17
 -0.2175000        1.1186790E-17
 -7.5000003E-02    1.1174624E-17
  6.7500003E-02    1.1161742E-17
  0.2100000        1.1158221E-17
  0.3525000        1.1168670E-17
  0.4950000        1.1189421E-17
  0.6375000        1.1210690E-17
  0.7800000        1.1222403E-17
  0.9225000        1.1220214E-17
   1.065000        1.1208080E-17
   1.207500        1.1195852E-17
   1.350000        1.1193320E-17
   1.492500        1.1204303E-17
   1.635000        1.1224345E-17
   1.777500        1.1243409E-17
   1.920000        1.1251961E-17
   2.062500        1.1246777E-17
   2.205000        1.1232976E-17
   2.347500        1.1221039E-17
   2.490000        1.1220578E-17
   2.632500        1.1234600E-17
   2.775000        1.1257692E-17
   2.917500        1.1279221E-17
   3.060000        1.1289622E-17
   3.202500        1.1286022E-17
   3.345000        1.1273825E-17
   3.487500        1.1263342E-17
   3.630000        1.1263511E-17
   3.772500        1.1276488E-17
   3.915000        1.1296371E-17
   4.057500        1.1312799E-17
   4.200000        1.1317255E-17
   4.342500        1.1308263E-17
   4.485000        1.1292354E-17
   4.627500        1.1280225E-17
   4.770000        1.1280389E-17
   4.912500        1.1294160E-17
   5.055000        1.1314938E-17
   5.197500        1.1332230E-17
   5.340000        1.1337953E-17
   5.482500        1.1331221E-17
   5.625000        1.1318767E-17
   5.767500        1.1310762E-17
   5.910000        1.1314599E-17
   6.052500        1.1330406E-17
   6.195000        1.1350993E-17
   6.337500        1.1366241E-17
   6.480000        1.1369267E-17
   6.622500        1.1360617E-17
   6.765000        1.1347955E-17
   6.907500        1.1341448E-17
   7.050000        1.1347628E-17
   7.192500        1.1365469E-17
   7.335000        1.1387024E-17
   7.477500        1.1402241E-17
   7.620000        1.1405026E-17
   7.762500        1.1396888E-17
   7.905000        1.1385962E-17
   8.047500        1.1382022E-17
   8.190000        1.1390512E-17
   8.332500        1.1409220E-17
   8.475000        1.1429619E-17
   8.617500        1.1442052E-17
   8.760000        1.1441609E-17
   8.902500        1.1431130E-17
   9.045000        1.1419481E-17
   9.187500        1.1416155E-17
   9.330000        1.1425455E-17
   9.472500        1.1443803E-17
   9.615000        1.1461813E-17
   9.757500        1.1469919E-17
   9.900000        1.1464143E-17
   10.04250        1.1448541E-17
   10.18500        1.1432818E-17
   10.32750        1.1426554E-17
   10.47000        1.1433510E-17
   10.61250        1.1449463E-17
   10.75500        1.1464874E-17
   10.89750        1.1470780E-17
   11.04000        1.1464346E-17
   11.18250        1.1450705E-17
   11.32500        1.1439944E-17
   11.46750        1.1441034E-17
   11.61000        1.1456358E-17
   11.75250        1.1480144E-17
   11.89500        1.1501779E-17
   12.03750        1.1512046E-17
   12.18000        1.1508530E-17
   12.32250        1.1496988E-17
   12.46500        1.1487825E-17
   12.60750        1.1489813E-17
   12.75000        1.1504816E-17
   12.89250        1.1526682E-17
   13.03500        1.1544980E-17
   13.17750        1.1551301E-17
   13.32000        1.1544358E-17
   13.46250        1.1530783E-17
   13.60500        1.1521157E-17
   13.74750        1.1523643E-17
   13.89000        1.1539050E-17
   14.03250        1.1560309E-17
   14.17500        1.1576648E-17
   14.31750        1.1580010E-17
   14.46000        1.1569823E-17
   14.60250        1.1553316E-17
   14.74500        1.1541180E-17
   14.88750        1.1541214E-17
   15.03000        1.1553750E-17
   15.17250        1.1571602E-17
   15.31500        1.1584525E-17
   15.45750        1.1585485E-17
   15.60000        1.1574942E-17
   15.74250        1.1560574E-17
   15.88500        1.1552641E-17
   16.02750        1.1557773E-17
   16.17000        1.1574957E-17
   16.31250        1.1596117E-17
   16.45500        1.1610937E-17
   16.59750        1.1613005E-17
   16.74000        1.1603585E-17
   16.88250        1.1590750E-17
   17.02500        1.1584451E-17
   17.16750        1.1590484E-17
   17.31000        1.1607023E-17
   17.45250        1.1625795E-17
   17.59500        1.1637140E-17
   17.73750        1.1635897E-17
   17.88000        1.1624535E-17
   18.02250        1.1611640E-17
   18.16500        1.1606698E-17
   18.30750        1.1614341E-17
   18.45000        1.1631546E-17
   18.59250        1.1649488E-17
   18.73500        1.1658924E-17
   18.87750        1.1655824E-17
   19.02000        1.1643843E-17
   19.16250        1.1632132E-17
   19.30500        1.1629801E-17
   19.44750        1.1640404E-17
   19.59000        1.1659773E-17
   19.73250        1.1678530E-17
   19.87500        1.1687744E-17
   20.01750        1.1684322E-17
   20.16000        1.1672846E-17
   20.30250        1.1662758E-17
   20.44500        1.1662577E-17
   20.58750        1.1674679E-17
   20.73000        1.1693787E-17
   20.87250        1.1710134E-17
   21.01500        1.1715387E-17
   21.15750        1.1707751E-17
   21.30000        1.1693160E-17
   21.44250        1.1681801E-17
   21.58500        1.1682052E-17
   21.72750        1.1695472E-17
   21.87000        1.1715874E-17
   22.01250        1.1733038E-17
   22.15500        1.1738851E-17
   22.29750        1.1732161E-17
   22.44000        1.1719435E-17
   22.58250        1.1710797E-17
   22.72500        1.1713839E-17
   22.86750        1.1728945E-17
   23.01000        1.1748952E-17
   23.15250        1.1763379E-17
   23.29500        1.1764694E-17
   23.43750        1.1752865E-17
   23.58000        1.1735449E-17
   23.72250        1.1723151E-17
   23.86500        1.1723509E-17
   24.00750        1.1736484E-17
   24.15000        1.1754586E-17
   24.29250        1.1767457E-17
   24.43500        1.1768139E-17
   24.57750        1.1757276E-17
   24.72000        1.1742709E-17
   24.86250        1.1734743E-17
   25.00500        1.1739920E-17
   25.14750        1.1757051E-17
   25.29000        1.1777899E-17
   25.43250        1.1792089E-17
   25.57500        1.1793297E-17
   25.71750        1.1783008E-17
   25.86000        1.1769596E-17
   26.00250        1.1763295E-17
   26.14500        1.1770073E-17
   26.28750        1.1788114E-17
   26.43000        1.1808964E-17
   26.57250        1.1822654E-17
   26.71500        1.1823670E-17
   26.85750        1.1814201E-17
   27.00000        1.1802718E-17
   27.14250        1.1798767E-17
   27.28500        1.1807147E-17
   27.42750        1.1824992E-17
   27.57000        1.1843492E-17
   27.71250        1.1853219E-17
   27.85500        1.1849820E-17
   27.99750        1.1836633E-17
   28.14000        1.1822678E-17
   28.28250        1.1817240E-17
   28.42500        1.1824317E-17
   28.56750        1.1840298E-17
   28.71000        1.1856249E-17
   28.85250        1.1863395E-17
   28.99500        1.1858469E-17
   29.13750        1.1845704E-17
   29.28000        1.1834246E-17
   29.42250        1.1832586E-17
   29.56500        1.1843397E-17
   29.70750        1.1861902E-17
   29.85000        1.1878764E-17
   29.99250        1.1885755E-17
   30.13500        1.1880739E-17
   30.27750        1.1868965E-17
   30.42000        1.1859870E-17
   30.56250        1.1861318E-17
   30.70500        1.1874782E-17
   30.84750        1.1894385E-17
   30.99000        1.1910393E-17
   31.13250        1.1915062E-17
   31.27500        1.1907300E-17
   31.41750        1.1893323E-17
   31.56000        1.1882892E-17
   31.70250        1.1883416E-17
   31.84500        1.1895465E-17
   31.98750        1.1912443E-17
   32.13000        1.1924594E-17
   32.27250        1.1924965E-17
   32.41500        1.1913676E-17
   32.55750        1.1897929E-17
   32.70000        1.1887710E-17
   32.84250        1.1889754E-17
   32.98500        1.1903431E-17
   33.12750        1.1921024E-17
   33.27000        1.1932276E-17
   33.41250        1.1930481E-17
   33.55500        1.1916482E-17
   33.69750        1.1898153E-17
   33.84000        1.1885695E-17
   33.98250        1.1885556E-17
   34.12500        1.1896640E-17
   34.26750        1.1911070E-17
   34.41000        1.1919058E-17
   34.55250        1.1914932E-17
   34.69500        1.1900704E-17
   34.83750        1.1884994E-17
   34.98000        1.1877970E-17
   35.12250        1.1885305E-17
   35.26500        1.1904793E-17
   35.40750        1.1927646E-17
   35.55000        1.1943699E-17
   35.69250        1.1947405E-17
   35.83500        1.1941040E-17
   35.97750        1.1933209E-17
   36.12000        1.1933578E-17
   36.26250        1.1946992E-17
   36.40500        1.1970528E-17
   36.54750        1.1995221E-17
   36.69000        1.2011424E-17
   36.83250        1.2014545E-17
   36.97500        1.2007732E-17
   37.11750        1.1999884E-17
   37.26000        1.2000226E-17
   37.40250        1.2012693E-17
   37.54500        1.2033530E-17
   37.68750        1.2053518E-17
   37.83000        1.2063489E-17
   37.97250        1.2059789E-17
   38.11500        1.2046418E-17
   38.25750        1.2032579E-17
   38.40000        1.2027133E-17
   38.54250        1.2033316E-17
   38.68500        1.2046901E-17
   38.82750        1.2058874E-17
   38.97000        1.2060997E-17
   39.11250        1.2050867E-17
   39.25500        1.2033411E-17
   39.39750        1.2017935E-17
   39.54000        1.2012515E-17
   39.68250        1.2019142E-17
   39.82500        1.2032562E-17
   39.96750        1.2043494E-17
   40.11000        1.2044288E-17
   40.25250        1.2033574E-17
   40.39500        1.2017098E-17
   40.53750        1.2004236E-17
   40.68000        1.2002307E-17
   40.82250        1.2012120E-17
   40.96500        1.2027476E-17
   41.10750        1.2038906E-17
   41.25000        1.2039397E-17
   41.39250        1.2028629E-17
   41.53500        1.2013161E-17
   41.67750        1.2002447E-17
   41.82000        1.2003101E-17
   41.96250        1.2014890E-17
   42.10500        1.2030886E-17
   42.24750        1.2041707E-17
   42.39000        1.2041270E-17
   42.53250        1.2030582E-17
   42.67500        1.2017235E-17
   42.81750        1.2010902E-17
   42.96000        1.2017517E-17
   43.10250        1.2035657E-17
   43.24500        1.2057322E-17
   43.38750        1.2072660E-17
   43.53000        1.2075796E-17
   43.67250        1.2068282E-17
   43.81500        1.2058067E-17
   43.95750        1.2054609E-17
   44.10000        1.2063093E-17
   44.24250        1.2081221E-17
   44.38500        1.2100541E-17
   44.52750        1.2111520E-17
   44.67000        1.2109321E-17
   44.81250        1.2096793E-17
   44.95500        1.2082867E-17
   45.09750        1.2077292E-17
   45.24000        1.2084855E-17
   45.38250        1.2102558E-17
   45.52500        1.2121428E-17
   45.66750        1.2131893E-17
   45.81000        1.2129487E-17
   45.95250        1.2117473E-17
   46.09500        1.2104828E-17
   46.23750        1.2100786E-17
   46.38000        1.2109253E-17
   46.52250        1.2126434E-17
   46.66500        1.2143091E-17
   46.80750        1.2150090E-17
   46.95000        1.2143892E-17
   47.09250        1.2128686E-17
   47.23500        1.2113911E-17
   47.37750        1.2108640E-17
   47.52000        1.2116209E-17
   47.66250        1.2132299E-17
   47.80500        1.2147615E-17
   47.94750        1.2153509E-17
   48.09000        1.2147187E-17
   48.23250        1.2133349E-17
   48.37500        1.2121321E-17
   48.51750        1.2119412E-17
   48.66000        1.2129915E-17
   48.80250        1.2147757E-17
   48.94500        1.2163585E-17
   49.08750        1.2169423E-17
   49.23000        1.2163470E-17
   49.37250        1.2151137E-17
   49.51500        1.2141745E-17
   49.65750        1.2142856E-17
   49.80000        1.2155694E-17
   49.94250        1.2174400E-17
   50.08500        1.2189566E-17
   50.22750        1.2193899E-17
   50.37000        1.2186585E-17
   50.51250        1.2173726E-17
   50.65500        1.2164604E-17
   50.79750        1.2166035E-17
   50.94000        1.2178263E-17
   51.08250        1.2194840E-17
   51.22500        1.2206589E-17
   51.36750        1.2207212E-17
   51.51000        1.2197145E-17
   51.65250        1.2183313E-17
   51.79500        1.2174923E-17
   51.93750        1.2177856E-17
   52.08000        1.2191045E-17
   52.22250        1.2207069E-17
   52.36500        1.2216589E-17
   52.50750        1.2213979E-17
   52.65000        1.2200736E-17
   52.79250        1.2184602E-17
   52.93500        1.2174922E-17
   53.07750        1.2177046E-17
   53.22000        1.2189146E-17
   53.36250        1.2203392E-17
   53.50500        1.2210775E-17
   53.64750        1.2206650E-17
   53.79000        1.2193646E-17
   53.93250        1.2180157E-17
   54.07500        1.2175286E-17
   54.21750        1.2183317E-17
   54.36000        1.2201010E-17
   54.50250        1.2219430E-17
   54.64500        1.2229185E-17
   54.78750        1.2225993E-17
   54.93000        1.2213190E-17
   55.07250        1.2199708E-17
   55.21500        1.2194704E-17
   55.35750        1.2202078E-17
   55.50000        1.2218178E-17
   55.64250        1.2234060E-17
   55.78500        1.2240960E-17
   55.92750        1.2235661E-17
   56.07000        1.2222528E-17
   56.21250        1.2210958E-17
   56.35500        1.2209770E-17
   56.49750        1.2221888E-17
   56.64000        1.2242523E-17
   56.78250        1.2261948E-17
   56.92500        1.2271215E-17
   57.06750        1.2267414E-17
   57.21000        1.2255303E-17
   57.35250        1.2244383E-17
   57.49500        1.2243161E-17
   57.63750        1.2254046E-17
   57.78000        1.2271951E-17
   57.92250        1.2287399E-17
   58.06500        1.2292260E-17
   58.20750        1.2284658E-17
   58.35000        1.2270093E-17
   58.49250        1.2258120E-17
   58.63500        1.2256590E-17
   58.77750        1.2266929E-17
   58.92000        1.2283292E-17
   59.06250        1.2296101E-17
   59.20500        1.2297821E-17
   59.34750        1.2287510E-17
   59.49000        1.2271411E-17
   59.63250        1.2259237E-17
   59.77500        1.2258405E-17
   59.91750        1.2269684E-17
   60.06000        1.2286852E-17
   60.20250        1.2300536E-17
   60.34500        1.2303890E-17
   60.48750        1.2296678E-17
   60.63000        1.2285296E-17
   60.77250        1.2278756E-17
   60.91500        1.2283080E-17
   61.05750        1.2297535E-17
   61.20000        1.2314977E-17
   61.34250        1.2326139E-17
   61.48500        1.2325223E-17
   61.62750        1.2313455E-17
   61.77000        1.2298420E-17
   61.91250        1.2289581E-17
   62.05500        1.2292686E-17
   62.19750        1.2306419E-17
   62.34000        1.2323320E-17
   62.48250        1.2334379E-17
   62.62500        1.2334519E-17
   62.76750        1.2325630E-17
   62.91000        1.2315321E-17
   63.05250        1.2312157E-17
   63.19500        1.2320274E-17
   63.33750        1.2336685E-17
   63.48000        1.2352922E-17
   63.62250        1.2360064E-17
   63.76500        1.2354127E-17
   63.90750        1.2338527E-17
   64.05000        1.2322142E-17
   64.19250        1.2314077E-17
   64.33500        1.2318296E-17
   64.47750        1.2331331E-17
   64.62000        1.2344470E-17
   64.76250        1.2349075E-17
   64.90500        1.2341852E-17
   65.04750        1.2326859E-17
   65.19000        1.2313044E-17
   65.33250        1.2308802E-17
   65.47500        1.2316822E-17
   65.61750        1.2332378E-17
   65.76000        1.2346110E-17
   65.90250        1.2349645E-17
   66.04500        1.2340693E-17
   66.18750        1.2324530E-17
   66.33000        1.2310954E-17
   66.47250        1.2308519E-17
   66.61500        1.2319485E-17
   66.75750        1.2338511E-17
   66.90000        1.2355871E-17
   67.04250        1.2363266E-17
   67.18500        1.2358746E-17
   67.32750        1.2347793E-17
   67.47000        1.2339919E-17
   67.61250        1.2342847E-17
   67.75500        1.2357772E-17
   67.89750        1.2378561E-17
   68.04000        1.2395389E-17
   68.18250        1.2400602E-17
   68.32500        1.2393309E-17
   68.46750        1.2379919E-17
   68.61000        1.2370311E-17
   68.75250        1.2371922E-17
   68.89500        1.2385300E-17
   69.03750        1.2403787E-17
   69.18000        1.2417495E-17
   69.32250        1.2419199E-17
   69.46500        1.2408607E-17
   69.60750        1.2392453E-17
   69.75000        1.2380409E-17
   69.89250        1.2379288E-17
   70.03500        1.2389034E-17
   70.17750        1.2402921E-17
   70.32000        1.2411786E-17
   70.46250        1.2409737E-17
   70.60500        1.2397864E-17
   70.74750        1.2383684E-17
   70.89000        1.2376682E-17
   71.03250        1.2382612E-17
   71.17500        1.2400006E-17
   71.31750        1.2420980E-17
   71.46000        1.2435864E-17
   71.60250        1.2438836E-17
   71.74500        1.2431212E-17
   71.88750        1.2420408E-17
   72.03000        1.2415261E-17
   72.17250        1.2420572E-17
   72.31500        1.2434172E-17
   72.45750        1.2448313E-17
   72.60000        1.2454495E-17
   72.74250        1.2448796E-17
   72.88500        1.2434440E-17
   73.02750        1.2420005E-17
   73.17000        1.2414355E-17
   73.31250        1.2421320E-17
   73.45500        1.2437366E-17
   73.59750        1.2453658E-17
   73.74000        1.2461289E-17
   73.88250        1.2456524E-17
   74.02500        1.2442907E-17
   74.16750        1.2428969E-17
   74.31000        1.2422943E-17
   74.45250        1.2427710E-17
   74.59500        1.2439029E-17
   74.73750        1.2448174E-17
   74.88000        1.2447347E-17
   75.02250        1.2434596E-17
   75.16500        1.2415221E-17
   75.30750        1.2398787E-17
   75.45000        1.2393489E-17
   75.59250        1.2401271E-17
   75.73500        1.2416645E-17
   75.87750        1.2429939E-17
   76.02000        1.2433044E-17
   76.16250        1.2424228E-17
   76.30500        1.2409110E-17
   76.44750        1.2397224E-17
   76.59000        1.2396242E-17
   76.73250        1.2407335E-17
   76.87500        1.2424474E-17
   77.01750        1.2438101E-17
   77.16000        1.2440951E-17
   77.30250        1.2432507E-17
   77.44500        1.2419390E-17
   77.58750        1.2411408E-17
   77.73000        1.2415648E-17
   77.87250        1.2432121E-17
   78.01500        1.2453626E-17
   78.15750        1.2469904E-17
   78.30000        1.2473630E-17
   78.44250        1.2464656E-17
   78.58500        1.2449989E-17
   78.72750        1.2439529E-17
   78.87000        1.2440137E-17
   79.01250        1.2451597E-17
   79.15500        1.2466877E-17
   79.29750        1.2476507E-17
   79.44000        1.2474420E-17
   79.58250        1.2461711E-17
   79.72500        1.2446049E-17
   79.86750        1.2437097E-17
   80.01000        1.2440698E-17
   80.15250        1.2455314E-17
   80.29500        1.2472894E-17
   80.43750        1.2483620E-17
   80.58000        1.2481705E-17
   80.72250        1.2468774E-17
   80.86500        1.2452803E-17
   81.00750        1.2443306E-17
   81.15000        1.2445663E-17
   81.29250        1.2458003E-17
   81.43500        1.2472496E-17
   81.57750        1.2480214E-17
   81.72000        1.2476613E-17
   81.86250        1.2464283E-17
   82.00500        1.2451333E-17
   82.14750        1.2446372E-17
   82.29000        1.2453182E-17
   82.43250        1.2468284E-17
   82.57500        1.2482924E-17
   82.71750        1.2488262E-17
   82.86000        1.2480658E-17
   83.00250        1.2463864E-17
   83.14500        1.2446793E-17
   83.28750        1.2438248E-17
   83.43000        1.2441764E-17
   83.57250        1.2453686E-17
   83.71500        1.2465596E-17
   83.85750        1.2469607E-17
   84.00000        1.2463263E-17
   84.14250        1.2451068E-17
   84.28500        1.2441704E-17
   84.42750        1.2442634E-17
   84.57000        1.2455374E-17
   84.71250        1.2474349E-17
   84.85500        1.2490050E-17
   84.99750        1.2494635E-17
   85.14000        1.2486592E-17
   85.28250        1.2471652E-17
   85.42500        1.2459381E-17
   85.56750        1.2457496E-17
   85.71000        1.2467321E-17
   85.85250        1.2483104E-17
   85.99500        1.2495611E-17
   86.13750        1.2497806E-17
   86.28000        1.2489162E-17
   86.42250        1.2475991E-17
   86.56500        1.2467585E-17
   86.70750        1.2470476E-17
   86.85000        1.2484326E-17
   86.99250        1.2501950E-17
   87.13500        1.2513502E-17
   87.27750        1.2512339E-17
   87.42000        1.2499041E-17
   87.56250        1.2481160E-17
   87.70500        1.2468825E-17
   87.84750        1.2468818E-17
   87.99000        1.2480652E-17
   88.13250        1.2496990E-17
   88.27500        1.2508150E-17
   88.41750        1.2507945E-17
   88.56000        1.2497374E-17
   88.70250        1.2483925E-17
   88.84500        1.2476928E-17
   88.98750        1.2481774E-17
   89.13000        1.2496500E-17
   89.27250        1.2512809E-17
   89.41500        1.2520952E-17
   89.55750        1.2515547E-17
   89.70000        1.2498841E-17
   89.84250        1.2479470E-17
   89.98500        1.2467433E-17
   90.12750        1.2468314E-17
   90.27000        1.2480147E-17
   90.41250        1.2494815E-17
   90.55500        1.2503072E-17
   90.69750        1.2500166E-17
   90.84000        1.2488665E-17
   90.98250        1.2476810E-17
   91.12500        1.2473425E-17
   91.26750        1.2482470E-17
   91.41000        1.2500541E-17
   91.55250        1.2518832E-17
   91.69500        1.2528367E-17
   91.83750        1.2525357E-17
   91.98000        1.2513442E-17
   92.12250        1.2501486E-17
   92.26500        1.2498250E-17
   92.40750        1.2507161E-17
   92.55000        1.2524307E-17
   92.69250        1.2540847E-17
   92.83500        1.2548349E-17
   92.97750        1.2543823E-17
   93.12000        1.2531416E-17
   93.26250        1.2519775E-17
   93.40500        1.2516700E-17
   93.54750        1.2524364E-17
   93.69000        1.2537995E-17
   93.83250        1.2548831E-17
   93.97500        1.2549542E-17
   94.11750        1.2538813E-17
   94.26000        1.2522304E-17
   94.40250        1.2509371E-17
   94.54500        1.2507512E-17
   94.68750        1.2517909E-17
   94.83000        1.2534724E-17
   94.97250        1.2548594E-17
   95.11500        1.2552207E-17
   95.25750        1.2544585E-17
   95.40000        1.2531508E-17
   95.54250        1.2521828E-17
   95.68500        1.2521938E-17
   95.82750        1.2531778E-17
   95.97000        1.2544811E-17
   96.11250        1.2552016E-17
   96.25500        1.2547471E-17
   96.39750        1.2532152E-17
   96.54000        1.2513578E-17
   96.68250        1.2501501E-17
   96.82500        1.2502181E-17
   96.96750        1.2514693E-17
   97.11000        1.2531488E-17
   97.25250        1.2542874E-17
   97.39500        1.2542753E-17
   97.53750        1.2532155E-17
   97.68000        1.2518460E-17
   97.82250        1.2510790E-17
   97.96500        1.2514373E-17
   98.10750        1.2527291E-17
   98.25000        1.2541590E-17
   98.39250        1.2548116E-17
   98.53500        1.2542143E-17
   98.67750        1.2526398E-17
   98.82000        1.2509634E-17
   98.96250        1.2501547E-17
   99.10500        1.2507094E-17
   99.24750        1.2523568E-17
   99.39000        1.2542215E-17