  -30.00000        4.8966441E-18
  -29.85750        4.9019918E-18
  -29.71500        4.9117699E-18
  -29.57250        4.9243902E-18
  -29.43000        4.9379039E-18
  -29.28750        4.9503790E-18
  -29.14500        4.9602729E-18
  -29.00250        4.9667191E-18
  -28.86000        4.9696813E-18
  -28.71750        4.9699356E-18
  -28.57500        4.9688901E-18
  -28.43250        4.9682792E-18
  -28.29000        4.9697942E-18
  -28.14750        4.9747221E-18
  -28.00500        4.9836701E-18
  -27.86250        4.9964269E-18
  -27.72000        5.0119907E-18
  -27.57750        5.0287643E-18
  -27.43500        5.0448666E-18
  -27.29250        5.0585068E-18
  -27.15000        5.0683445E-18
  -27.00750        5.0737571E-18
  -26.86500        5.0749685E-18
  -26.72250        5.0730048E-18
  -26.58000        5.0694901E-18
  -26.43750        5.0663237E-18
  -26.29500        5.0653079E-18
  -26.15250        5.0677882E-18
  -26.01000        5.0743936E-18
  -25.86750        5.0849195E-18
  -25.72500        5.0983732E-18
  -25.58250        5.1131801E-18
  -25.44000        5.1275048E-18
  -25.29750        5.1396230E-18
  -25.15500        5.1482683E-18
  -25.01250        5.1528877E-18
  -24.87000        5.1537505E-18
  -24.72750        5.1518893E-18
  -24.58500        5.1488883E-18
  -24.44250        5.1465573E-18
  -24.30000        5.1465606E-18
  -24.15750        5.1500794E-18
  -24.01500        5.1575679E-18
  -23.87250        5.1686658E-18
  -23.73000        5.1822696E-18
  -23.58750        5.1967556E-18
  -23.44500        5.2103131E-18
  -23.30250        5.2213075E-18
  -23.16000        5.2286136E-18
  -23.01750        5.2318392E-18
  -22.87500        5.2314128E-18
  -22.73250        5.2284916E-18
  -22.59000        5.2247329E-18
  -22.44750        5.2219581E-18
  -22.30500        5.2217857E-18
  -22.16250        5.2252995E-18
  -22.02000        5.2328335E-18
  -21.87750        5.2438966E-18
  -21.73500        5.2572796E-18
  -21.59250        5.2712986E-18
  -21.45000        5.2841369E-18
  -21.30750        5.2942148E-18
  -21.16500        5.3005088E-18
  -21.02250        5.3027563E-18
  -20.88000        5.3015056E-18
  -20.73750        5.2980029E-18
  -20.59500        5.2939357E-18
  -20.45250        5.2910910E-18
  -20.31000        5.2909921E-18
  -20.16750        5.2945854E-18
  -20.02500        5.3020507E-18
  -19.88250        5.3127623E-18
  -19.74000        5.3254165E-18
  -19.59750        5.3383011E-18
  -19.45500        5.3496504E-18
  -19.31250        5.3580120E-18
  -19.17000        5.3625524E-18
  -19.02750        5.3632356E-18
  -18.88500        5.3608401E-18
  -18.74250        5.3568026E-18
  -18.60000        5.3529306E-18
  -18.45750        5.3510347E-18
  -18.31500        5.3525575E-18
  -18.17250        5.3582758E-18
  -18.03000        5.3681313E-18
  -17.88750        5.3812305E-18
  -17.74500        5.3960093E-18
  -17.60250        5.4105330E-18
  -17.46000        5.4228745E-18
  -17.31750        5.4314933E-18
  -17.17500        5.4355419E-18
  -17.03250        5.4350345E-18
  -16.89000        5.4308493E-18
  -16.74750        5.4245549E-18
  -16.60500        5.4180979E-18
  -16.46250        5.4134207E-18
  -16.32000        5.4120752E-18
  -16.17750        5.4149228E-18
  -16.03500        5.4219696E-18
  -15.89250        5.4323772E-18
  -15.75000        5.4446418E-18
  -15.60750        5.4568981E-18
  -15.46500        5.4673028E-18
  -15.32250        5.4744012E-18
  -15.18000        5.4774188E-18
  -15.03750        5.4764134E-18
  -14.89500        5.4722609E-18
  -14.75250        5.4664723E-18
  -14.61000        5.4608847E-18
  -14.46750        5.4572831E-18
  -14.32500        5.4570317E-18
  -14.18250        5.4607896E-18
  -14.04000        5.4683723E-18
  -13.89750        5.4787828E-18
  -13.75500        5.4904121E-18
  -13.61250        5.5013611E-18
  -13.47000        5.5098236E-18
  -13.32750        5.5144504E-18
  -13.18500        5.5146183E-18
  -13.04250        5.5105606E-18
  -12.90000        5.5033240E-18
  -12.75750        5.4945667E-18
  -12.61500        5.4862394E-18
  -12.47250        5.4802051E-18
  -12.33000        5.4778804E-18
  -12.18750        5.4799649E-18
  -12.04500        5.4863143E-18
  -11.90250        5.4959824E-18
  -11.76000        5.5074248E-18
  -11.61750        5.5188237E-18
  -11.47500        5.5284641E-18
  -11.33250        5.5350865E-18
  -11.19000        5.5381405E-18
  -11.04750        5.5378898E-18
  -10.90500        5.5353475E-18
  -10.76250        5.5320578E-18
  -10.62000        5.5297682E-18
  -10.47750        5.5300560E-18
  -10.33500        5.5339955E-18
  -10.19250        5.5419145E-18
  -10.05000        5.5533093E-18
  -9.907500        5.5669152E-18
  -9.765000        5.5809371E-18
  -9.622500        5.5933874E-18
  -9.480000        5.6024678E-18
  -9.337500        5.6069218E-18
  -9.195000        5.6062807E-18
  -9.052500        5.6009615E-18
  -8.910000        5.5921827E-18
  -8.767500        5.5817300E-18
  -8.625000        5.5716082E-18
  -8.482500        5.5636573E-18
  -8.340000        5.5592059E-18
  -8.197500        5.5588345E-18
  -8.055000        5.5622871E-18
  -7.912500        5.5685580E-18
  -7.770000        5.5761122E-18
  -7.627500        5.5832185E-18
  -7.485000        5.5883094E-18
  -7.342500        5.5903066E-18
  -7.200000        5.5888454E-18
  -7.057500        5.5843505E-18
  -6.915000        5.5779510E-18
  -6.772500        5.5712504E-18
  -6.630000        5.5659937E-18
  -6.487500        5.5637049E-18
  -6.345000        5.5653679E-18
  -6.202500        5.5712202E-18
  -6.060000        5.5806973E-18
  -5.917500        5.5925470E-18
  -5.775000        5.6050767E-18
  -5.632500        5.6164968E-18
  -5.490000        5.6252703E-18
  -5.347500        5.6304183E-18
  -5.205000        5.6317024E-18
  -5.062500        5.6296639E-18
  -4.920000        5.6255056E-18
  -4.777500        5.6208399E-18
  -4.635000        5.6173542E-18
  -4.492500        5.6164645E-18
  -4.350000        5.6190168E-18
  -4.207500        5.6251090E-18
  -4.065000        5.6340657E-18
  -3.922500        5.6445775E-18
  -3.780000        5.6549731E-18
  -3.637500        5.6635675E-18
  -3.495000        5.6690219E-18
  -3.352500        5.6706258E-18
  -3.210000        5.6684537E-18
  -3.067500        5.6633587E-18
  -2.925000        5.6568099E-18
  -2.782500        5.6506031E-18
  -2.640000        5.6465032E-18
  -2.497500        5.6458931E-18
  -2.355000        5.6494922E-18
  -2.212500        5.6572061E-18
  -2.070000        5.6681302E-18
  -1.927500        5.6807187E-18
  -1.785000        5.6930842E-18
  -1.642500        5.7033652E-18
  -1.500000        5.7100985E-18
  -1.357500        5.7125081E-18
  -1.215000        5.7106614E-18
  -1.072500        5.7054510E-18
 -0.9300000        5.6984113E-18
 -0.7875000        5.6914063E-18
 -0.6450000        5.6862542E-18
 -0.5025000        5.6843653E-18
 -0.3600000        5.6864639E-18
 -0.2175000        5.6924539E-18
 -7.5000003E-02    5.7014412E-18
  6.7500003E-02    5.7119175E-18
  0.2100000        5.7220628E-18
  0.3525000        5.7301096E-18
  0.4950000        5.7346959E-18
  0.6375000        5.7351459E-18
  0.7800000        5.7316044E-18
  0.9225000        5.7250192E-18
   1.065000        5.7169475E-18
   1.207500        5.7092461E-18
   1.350000        5.7036932E-18
   1.492500        5.7016311E-18
   1.635000        5.7036986E-18
   1.777500        5.7097101E-18
   1.920000        5.7187028E-18
   2.062500        5.7291414E-18
   2.205000        5.7392310E-18
   2.347500        5.7472819E-18
   2.490000        5.7520444E-18
   2.632500        5.7529535E-18
   2.775000        5.7502412E-18
   2.917500        5.7448864E-18
   3.060000        5.7384199E-18
   3.202500        5.7326164E-18
   3.345000        5.7291356E-18
   3.487500        5.7291828E-18
   3.630000        5.7332612E-18
   3.772500        5.7410681E-18
   3.915000        5.7515593E-18
   4.057500        5.7631650E-18
   4.200000        5.7741177E-18
   4.342500        5.7828151E-18
   4.485000        5.7881488E-18
   4.627500        5.7897217E-18
   4.770000        5.7879230E-18
   4.912500        5.7838425E-18
   5.055000        5.7790423E-18
   5.197500        5.7752373E-18
   5.340000        5.7739440E-18
   5.482500        5.7761666E-18
   5.625000        5.7821840E-18
   5.767500        5.7914769E-18
   5.910000        5.8028163E-18
   6.052500        5.8145007E-18
   6.195000        5.8246911E-18
   6.337500        5.8317850E-18
   6.480000        5.8347472E-18
   6.622500        5.8333228E-18
   6.765000        5.8280991E-18
   6.907500        5.8203935E-18
   7.050000        5.8119947E-18
   7.192500        5.8048169E-18
   7.335000        5.8005292E-18
   7.477500        5.8002397E-18
   7.620000        5.8042916E-18
   7.762500        5.8122098E-18
   7.905000        5.8228010E-18
   8.047500        5.8343964E-18
   8.190000        5.8451812E-18
   8.332500        5.8535535E-18
   8.475000        5.8584413E-18
   8.617500        5.8595109E-18
   8.760000        5.8572254E-18
   8.902500        5.8527363E-18
   9.045000        5.8476322E-18
   9.187500        5.8435980E-18
   9.330000        5.8420545E-18
   9.472500        5.8438619E-18
   9.615000        5.8491405E-18
   9.757500        5.8572473E-18
   9.900000        5.8669137E-18
   10.04250        5.8765028E-18
   10.18500        5.8843449E-18
   10.32750        5.8890727E-18
   10.47000        5.8899007E-18
   10.61250        5.8867909E-18
   10.75500        5.8804737E-18
   10.89750        5.8723103E-18
   11.04000        5.8640331E-18
   11.18250        5.8574024E-18
   11.32500        5.8538492E-18
   11.46750        5.8541917E-18
   11.61000        5.8584682E-18
   11.75250        5.8659381E-18
   11.89500        5.8752439E-18
   12.03750        5.8847014E-18
   12.18000        5.8926531E-18
   12.32250        5.8978118E-18
   12.46500        5.8995229E-18
   12.60750        5.8978929E-18
   12.75000        5.8937657E-18
   12.89250        5.8885524E-18
   13.03500        5.8839437E-18
   13.17750        5.8815697E-18
   13.32000        5.8826620E-18
   13.46250        5.8877910E-18
   13.60500        5.8967274E-18
   13.74750        5.9084680E-18
   13.89000        5.9214192E-18
   14.03250        5.9337036E-18
   14.17500        5.9435396E-18
   14.31750        5.9495987E-18
   14.46000        5.9512791E-18
   14.60250        5.9488245E-18
   14.74500        5.9432745E-18
   14.88750        5.9362571E-18
   15.03000        5.9296632E-18
   15.17250        5.9252759E-18
   15.31500        5.9244272E-18
   15.45750        5.9277442E-18
   15.60000        5.9350288E-18
   15.74250        5.9453015E-18
   15.88500        5.9569925E-18
   16.02750        5.9682479E-18
   16.17000        5.9772985E-18
   16.31250        5.9828150E-18
   16.45500        5.9841753E-18
   16.59750        5.9815945E-18
   16.74000        5.9760776E-18
   16.88250        5.9692141E-18
   17.02500        5.9628456E-18
   17.16750        5.9586886E-18
   17.31000        5.9579876E-18
   17.45250        5.9612690E-18
   17.59500        5.9682450E-18
   17.73750        5.9778804E-18
   17.88000        5.9886044E-18
   18.02250        5.9986282E-18
   18.16500        6.0062957E-18
   18.30750        6.0104114E-18
   18.45000        6.0104788E-18
   18.59250        6.0068032E-18
   18.73500        6.0004376E-18
   18.87750        5.9929719E-18
   19.02000        5.9862163E-18
   19.16250        5.9818331E-18
   19.30500        5.9809968E-18
   19.44750        5.9841558E-18
   19.59000        5.9909486E-18
   19.73250        6.0002888E-18
   19.87500        6.0105975E-18
   20.01750        6.0201328E-18
   20.16000        6.0273442E-18
   20.30250        6.0311831E-18
   20.44500        6.0313014E-18
   20.58750        6.0281176E-18
   20.73000        6.0227240E-18
   20.87250        6.0166694E-18
   21.01500        6.0116455E-18
   21.15750        6.0091462E-18
   21.30000        6.0101574E-18
   21.44250        6.0149505E-18
   21.58500        6.0230135E-18
   21.72750        6.0331526E-18
   21.87000        6.0437335E-18
   22.01250        6.0530207E-18
   22.15500        6.0595405E-18
   22.29750        6.0623807E-18
   22.44000        6.0613789E-18
   22.58250        6.0571479E-18
   22.72500        6.0509424E-18
   22.86750        6.0444056E-18
   23.01000        6.0392349E-18
   23.15250        6.0368489E-18
   23.29500        6.0381070E-18
   23.43750        6.0431396E-18
   23.58000        6.0513121E-18
   23.72250        6.0613492E-18
   23.86500        6.0715756E-18
   24.00750        6.0802552E-18
   24.15000        6.0859396E-18
   24.29250        6.0877693E-18
   24.43500        6.0856563E-18
   24.57750        6.0803061E-18
   24.72000        6.0730724E-18
   24.86250        6.0656790E-18
   25.00500        6.0598677E-18
   25.14750        6.0570511E-18
   25.29000        6.0580367E-18
   25.43250        6.0628819E-18
   25.57500        6.0708957E-18
   25.71750        6.0807871E-18
   25.86000        6.0909283E-18
   26.00250        6.0996749E-18
   26.14500        6.1056935E-18
   26.28750        6.1082280E-18
   26.43000        6.1072560E-18
   26.57250        6.1034948E-18
   26.71500        6.0982625E-18
   26.85750        6.0932047E-18
   27.00000        6.0899481E-18
   27.14250        6.0897591E-18
   27.28500        6.0932742E-18
   27.42750        6.1003631E-18
   27.57000        6.1101623E-18
   27.71250        6.1212523E-18
   27.85500        6.1319519E-18
   27.99750        6.1406592E-18
   28.14000        6.1461666E-18
   28.28250        6.1478954E-18
   28.42500        6.1460078E-18
   28.56750        6.1413694E-18
   28.71000        6.1353835E-18
   28.85250        6.1297123E-18
   28.99500        6.1259466E-18
   29.13750        6.1252815E-18
   29.28000        6.1282648E-18
   29.42250        6.1346783E-18
   29.56500        6.1435750E-18
   29.70750        6.1534752E-18
   29.85000        6.1626738E-18
   29.99250        6.1695986E-18
   30.13500        6.1731360E-18
   30.27750        6.1728581E-18
   30.42000        6.1691031E-18
   30.56250        6.1628992E-18
   30.70500        6.1557516E-18
   30.84750        6.1493430E-18
   30.99000        6.1451984E-18
   31.13250        6.1443873E-18
   31.27500        6.1473056E-18
   31.41750        6.1535955E-18
   31.56000        6.1622056E-18
   31.70250        6.1715929E-18
   31.84500        6.1800343E-18
   31.98750        6.1859805E-18
   32.13000        6.1883838E-18
   32.27250        6.1869276E-18
   32.41500        6.1820977E-18
   32.55750        6.1750910E-18
   32.70000        6.1675716E-18
   32.84250        6.1613317E-18
   32.98500        6.1579324E-18
   33.12750        6.1583981E-18
   33.27000        6.1630179E-18
   33.41250        6.1712947E-18
   33.55500        6.1820418E-18
   33.69750        6.1936042E-18
   33.84000        6.2041706E-18
   33.98250        6.2121181E-18
   34.12500        6.2163206E-18
   34.26750        6.2163723E-18
   34.41000        6.2126703E-18
   34.55250        6.2063357E-18
   34.69500        6.1989908E-18
   34.83750        6.1924234E-18
   34.98000        6.1882242E-18
   35.12250        6.1874665E-18
   35.26500        6.1904993E-18
   35.40750        6.1968976E-18
   35.55000        6.2055706E-18
   35.69250        6.2150017E-18
   35.83500        6.2235613E-18
   35.97750        6.2298343E-18
   36.12000        6.2328948E-18
   36.26250        6.2324858E-18
   36.40500        6.2290646E-18
   36.54750        6.2237177E-18
   36.69000        6.2179456E-18
   36.83250        6.2133643E-18
   36.97500        6.2113749E-18
   37.11750        6.2128725E-18
   37.26000        6.2180515E-18
   37.40250        6.2263601E-18
   37.54500        6.2366188E-18
   37.68750        6.2472667E-18
   37.83000        6.2566957E-18
   37.97250        6.2635837E-18
   38.11500        6.2671616E-18
   38.25750        6.2673589E-18
   38.40000        6.2648037E-18
   38.54250        6.2606827E-18
   38.68500        6.2564943E-18
   38.82750        6.2537452E-18
   38.97000        6.2536451E-18
   39.11250        6.2568558E-18
   39.25500        6.2633450E-18
   39.39750        6.2723716E-18
   39.54000        6.2826208E-18
   39.68250        6.2924597E-18
   39.82500        6.3002720E-18
   39.96750        6.3047967E-18
   40.11000        6.3053997E-18
   40.25250        6.3022113E-18
   40.39500        6.2961043E-18
   40.53750        6.2885078E-18
   40.68000        6.2811162E-18
   40.82250        6.2755426E-18
   40.96500        6.2730003E-18
   41.10750        6.2740698E-18
   41.25000        6.2785891E-18
   41.39250        6.2856921E-18
   41.53500        6.2939772E-18
   41.67750        6.3017775E-18
   41.82000        6.3074908E-18
   41.96250        6.3099008E-18
   42.10500        6.3084350E-18
   42.24750        6.3032949E-18
   42.39000        6.2954359E-18
   42.53250        6.2863824E-18
   42.67500        6.2779257E-18
   42.81750        6.2717624E-18
   42.96000        6.2691543E-18
   43.10250        6.2706883E-18
   43.24500        6.2761775E-18
   43.38750        6.2847227E-18
   43.53000        6.2949139E-18
   43.67250        6.3051172E-18
   43.81500        6.3137960E-18
   43.95750        6.3198001E-18
   44.10000        6.3225790E-18
   44.24250        6.3222758E-18
   44.38500        6.3196913E-18
   44.52750        6.3161162E-18
   44.67000        6.3130635E-18
   44.81250        6.3119452E-18
   44.95500        6.3137679E-18
   45.09750        6.3189026E-18
   45.24000        6.3269974E-18
   45.38250        6.3370427E-18
   45.52500        6.3475847E-18
   45.66750        6.3570315E-18
   45.81000        6.3639802E-18
   45.95250        6.3674990E-18
   46.09500        6.3673030E-18
   46.23750        6.3637991E-18
   46.38000        6.3579972E-18
   46.52250        6.3513066E-18
   46.66500        6.3452723E-18
   46.80750        6.3412774E-18
   46.95000        6.3402836E-18
   47.09250        6.3426373E-18
   47.23500        6.3480003E-18
   47.37750        6.3554131E-18
   47.52000        6.3634885E-18
   47.66250        6.3707073E-18
   47.80500        6.3757444E-18
   47.94750        6.3777602E-18
   48.09000        6.3765827E-18
   48.23250        6.3727450E-18
   48.37500        6.3673700E-18
   48.51750        6.3619329E-18
   48.66000        6.3579563E-18
   48.80250        6.3567014E-18
   48.94500        6.3589216E-18
   49.08750        6.3647081E-18
   49.23000        6.3734647E-18
   49.37250        6.3840030E-18
   49.51500        6.3947522E-18
   49.65750        6.4040435E-18
   49.80000        6.4104314E-18
   49.94250        6.4129754E-18
   50.08500        6.4114414E-18
   50.22750        6.4063592E-18
   50.37000        6.3989236E-18
   50.51250        6.3907561E-18
   50.65500        6.3835774E-18
   50.79750        6.3788604E-18
   50.94000        6.3775489E-18
   51.08250        6.3798890E-18
   51.22500        6.3854121E-18
   51.36750        6.3930502E-18
   51.51000        6.4013663E-18
   51.65250        6.4088415E-18
   51.79500        6.4141711E-18
   51.93750        6.4165178E-18
   52.08000        6.4156782E-18
   52.22250        6.4121292E-18
   52.36500        6.4069427E-18
   52.50750        6.4015768E-18
   52.65000        6.3975757E-18
   52.79250        6.3962481E-18
   52.93500        6.3983831E-18
   53.07750        6.4040811E-18
   53.22000        6.4127342E-18
   53.36250        6.4231621E-18
   53.50500        6.4338625E-18
   53.64750        6.4433250E-18
   53.79000        6.4503263E-18
   53.93250        6.4541599E-18
   54.07500        6.4547496E-18
   54.21750        6.4526412E-18
   54.36000        6.4488775E-18
   54.50250        6.4447825E-18
   54.64500        6.4416934E-18
   54.78750        6.4406863E-18
   54.93000        6.4423436E-18
   55.07250        6.4466209E-18
   55.21500        6.4528405E-18
   55.35750        6.4598265E-18
   55.50000        6.4661585E-18
   55.64250        6.4704901E-18
   55.78500        6.4718520E-18
   55.92750        6.4698755E-18
   56.07000        6.4648785E-18
   56.21250        6.4578061E-18
   56.35500        6.4500339E-18
   56.49750        6.4430955E-18
   56.64000        6.4383835E-18
   56.78250        6.4368896E-18
   56.92500        6.4390204E-18
   57.06750        6.4445182E-18
   57.21000        6.4525067E-18
   57.35250        6.4616434E-18
   57.49500        6.4703743E-18
   57.63750        6.4772357E-18
   57.78000        6.4811532E-18
   57.92250        6.4816731E-18
   58.06500        6.4790654E-18
   58.20750        6.4742719E-18
   58.35000        6.4687083E-18
   58.49250        6.4639591E-18
   58.63500        6.4614403E-18
   58.77750        6.4621078E-18
   58.92000        6.4662690E-18
   59.06250        6.4735324E-18
   59.20500        6.4828974E-18
   59.34750        6.4929505E-18
   59.49000        6.5021372E-18
   59.63250        6.5090507E-18
   59.77500        6.5126986E-18
   59.91750        6.5126978E-18
   60.06000        6.5093634E-18
   60.20250        6.5036617E-18
   60.34500        6.4970339E-18
   60.48750        6.4911092E-18
   60.63000        6.4873716E-18
   60.77250        6.4868451E-18
   60.91500        6.4898821E-18
   61.05750        6.4960971E-18
   61.20000        6.5044599E-18
   61.34250        6.5135316E-18
   61.48500        6.5217662E-18
   61.62750        6.5278319E-18
   61.77000        6.5308676E-18
   61.91250        6.5306435E-18
   62.05500        6.5275994E-18
   62.19750        6.5227546E-18
   62.34000        6.5175173E-18
   62.48250        6.5134133E-18
   62.62500        6.5117833E-18
   62.76750        6.5135018E-18
   62.91000        6.5187759E-18
   63.05250        6.5270779E-18
   63.19500        6.5372332E-18
   63.33750        6.5476503E-18
   63.48000        6.5566521E-18
   63.62250        6.5628258E-18
   63.76500        6.5653102E-18
   63.90750        6.5639644E-18
   64.05000        6.5593735E-18
   64.19250        6.5527122E-18
   64.33500        6.5454980E-18
   64.47750        6.5392908E-18
   64.62000        6.5353944E-18
   64.76250        6.5346160E-18
   64.90500        6.5371120E-18
   65.04750        6.5423559E-18
   65.19000        6.5492352E-18
   65.33250        6.5562712E-18
   65.47500        6.5619159E-18
   65.61750        6.5648896E-18
   65.76000        6.5644669E-18
   65.90250        6.5606507E-18
   66.04500        6.5541887E-18
   66.18750        6.5464207E-18
   66.33000        6.5389984E-18
   66.47250        6.5335390E-18
   66.61500        6.5312969E-18
   66.75750        6.5329269E-18
   66.90000        6.5383640E-18
   67.04250        6.5468525E-18
   67.18500        6.5570950E-18
   67.32750        6.5674956E-18
   67.47000        6.5764502E-18
   67.61250        6.5826433E-18
   67.75500        6.5852994E-18
   67.89750        6.5843374E-18
   68.04000        6.5803971E-18
   68.18250        6.5747169E-18
   68.32500        6.5688799E-18
   68.46750        6.5644785E-18
   68.61000        6.5627774E-18
   68.75250        6.5644491E-18
   68.89500        6.5694420E-18
   69.03750        6.5770148E-18
   69.18000        6.5859144E-18
   69.32250        6.5946470E-18
   69.46500        6.6017826E-18
   69.60750        6.6062329E-18
   69.75000        6.6074476E-18
   69.89250        6.6055136E-18
   70.03500        6.6011350E-18
   70.17750        6.5955064E-18
   70.32000        6.5900909E-18
   70.46250        6.5863338E-18
   70.60500        6.5853726E-18
   70.74750        6.5877896E-18
   70.89000        6.5934794E-18
   71.03250        6.6016586E-18
   71.17500        6.6110301E-18
   71.31750        6.6200613E-18
   71.46000        6.6273123E-18
   71.60250        6.6317262E-18
   71.74500        6.6328375E-18
   71.88750        6.6308361E-18
   72.03000        6.6265054E-18
   72.17250        6.6210477E-18
   72.31500        6.6158468E-18
   72.45750        6.6122022E-18
   72.60000        6.6110888E-18
   72.74250        6.6129715E-18
   72.88500        6.6177042E-18
   73.02750        6.6245475E-18
   73.17000        6.6323040E-18
   73.31250        6.6395559E-18
   73.45500        6.6449660E-18
   73.59750        6.6475721E-18
   73.74000        6.6469988E-18
   73.88250        6.6435412E-18
   74.02500        6.6380926E-18
   74.16750        6.6319437E-18
   74.31000        6.6265009E-18
   74.45250        6.6229953E-18
   74.59500        6.6222425E-18
   74.73750        6.6244991E-18
   74.88000        6.6294274E-18
   75.02250        6.6361702E-18
   75.16500        6.6435081E-18
   75.30750        6.6500921E-18
   75.45000        6.6546978E-18
   75.59250        6.6564783E-18
   75.73500        6.6551482E-18
   75.87750        6.6510710E-18
   76.02000        6.6452051E-18
   76.16250        6.6389152E-18
   76.30500        6.6336874E-18
   76.44750        6.6308084E-18
   76.59000        6.6310938E-18
   76.73250        6.6347239E-18
   76.87500        6.6412243E-18
   77.01750        6.6495842E-18
   77.16000        6.6584751E-18
   77.30250        6.6665190E-18
   77.44500        6.6725463E-18
   77.58750        6.6758091E-18
   77.73000        6.6761143E-18
   77.87250        6.6738611E-18
   78.01500        6.6699721E-18
   78.15750        6.6657241E-18
   78.30000        6.6624985E-18
   78.44250        6.6614964E-18
   78.58500        6.6634734E-18
   78.72750        6.6685655E-18
   78.87000        6.6762450E-18
   79.01250        6.6854338E-18
   79.15500        6.6947375E-18
   79.29750        6.7027496E-18
   79.44000        6.7083454E-18
   79.58250        6.7109035E-18
   79.72500        6.7104076E-18
   79.86750        6.7074289E-18
   80.01000        6.7029944E-18
   80.15250        6.6983837E-18
   80.29500        6.6948847E-18
   80.43750        6.6935501E-18
   80.58000        6.6949923E-18
   80.72250        6.6992514E-18
   80.86500        6.7057663E-18
   81.00750        6.7134690E-18
   81.15000        6.7209976E-18
   81.29250        6.7269797E-18
   81.43500        6.7303340E-18
   81.57750        6.7305052E-18
   81.72000        6.7275832E-18
   81.86250        6.7222702E-18
   82.00500        6.7157123E-18
   82.14750        6.7092495E-18
   82.29000        6.7041343E-18
   82.43250        6.7012888E-18
   82.57500        6.7011403E-18
   82.71750        6.7035540E-18
   82.86000        6.7078681E-18
   83.00250        6.7130194E-18
   83.14500        6.7177451E-18
   83.28750        6.7208268E-18
   83.43000        6.7213446E-18
   83.57250        6.7188837E-18
   83.71500        6.7136510E-18
   83.85750        6.7064545E-18
   84.00000        6.6985479E-18
   84.14250        6.6913680E-18
   84.28500        6.6862270E-18
   84.42750        6.6840346E-18
   84.57000        6.6851178E-18
   84.71250        6.6891739E-18
   84.85500        6.6953537E-18
   84.99750        6.7024472E-18
   85.14000        6.7091222E-18
   85.28250        6.7141746E-18
   85.42500        6.7167417E-18
   85.56750        6.7164576E-18
   85.71000        6.7135265E-18
   85.85250        6.7086928E-18
   85.99500        6.7031160E-18
   86.13750        6.6981426E-18
   86.28000        6.6950328E-18
   86.42250        6.6946862E-18
   86.56500        6.6974366E-18
   86.70750        6.7029708E-18
   86.85000        6.7103973E-18
   86.99250        6.7184428E-18
   87.13500        6.7257286E-18
   87.27750        6.7310586E-18
   87.42000        6.7336481E-18
   87.56250        6.7332651E-18
   87.70500        6.7302471E-18
   87.84750        6.7254300E-18
   87.99000        6.7199847E-18
   88.13250        6.7152106E-18
   88.27500        6.7123006E-18
   88.41750        6.7121190E-18
   88.56000        6.7150278E-18
   88.70250        6.7208044E-18
   88.84500        6.7286726E-18
   88.98750        6.7374572E-18
   89.13000        6.7458407E-18
   89.27250        6.7526534E-18
   89.41500        6.7571330E-18
   89.55750        6.7590863E-18
   89.70000        6.7589168E-18
   89.84250        6.7575126E-18
   89.98500        6.7560403E-18
   90.12750        6.7556904E-18
   90.27000        6.7574332E-18
   90.41250        6.7618297E-18
   90.55500        6.7689170E-18
   90.69750        6.7781926E-18
   90.84000        6.7886853E-18
   90.98250        6.7991219E-18
   91.12500        6.8081514E-18
   91.26750        6.8146125E-18
   91.41000        6.8177777E-18
   91.55250        6.8175250E-18
   91.69500        6.8143792E-18
   91.83750        6.8094161E-18
   91.98000        6.8040366E-18
   92.12250        6.7996682E-18
   92.26500        6.7974684E-18
   92.40750        6.7980962E-18
   92.55000        6.8016034E-18
   92.69250        6.8074528E-18
   92.83500        6.8146514E-18
   92.97750        6.8219608E-18
   93.12000        6.8281373E-18
   93.26250        6.8321735E-18
   93.40500        6.8334917E-18
   93.54750        6.8320697E-18
   93.69000        6.8284628E-18
   93.83250        6.8237127E-18
   93.97500        6.8191446E-18
   94.11750        6.8160923E-18
   94.26000        6.8155989E-18
   94.40250        6.8181797E-18
   94.54500        6.8236945E-18
   94.68750        6.8313720E-18
   94.83000        6.8399751E-18
   94.97250        6.8480645E-18
   95.11500        6.8542886E-18
   95.25750        6.8576445E-18
   95.40000        6.8576499E-18
   95.54250        6.8544123E-18
   95.68500        6.8485918E-18
   95.82750        6.8412705E-18
   95.97000        6.8337526E-18
   96.11250        6.8273292E-18
   96.25500        6.8230320E-18
   96.39750        6.8214285E-18
   96.54000        6.8225021E-18
   96.68250        6.8256521E-18
   96.82500        6.8298256E-18
   96.96750        6.8337555E-18
   97.11000        6.8362536E-18
   97.25250        6.8364815E-18
   97.39500        6.8341327E-18
   97.53750        6.8294889E-18
   97.68000        6.8233393E-18
   97.82250        6.8168008E-18
   97.96500        6.8110809E-18
   98.10750        6.8072419E-18
   98.25000        6.8060020E-18
   98.39250        6.8076059E-18
   98.53500        6.8117761E-18
   98.67750        6.8177488E-18
   98.82000        6.8243993E-18
   98.96250        6.8304431E-18
   99.10500        6.8346787E-18
   99.24750        6.8362408E-18
   99.39000        6.8347841E-18