  -30.00000        9.7844703E-19
  -29.85750        9.8019982E-19
  -29.71500        9.8339822E-19
  -29.57250        9.8751437E-19
  -29.43000        9.9190670E-19
  -29.28750        9.9594883E-19
  -29.14500        9.9914960E-19
  -29.00250        1.0012397E-18
  -28.86000        1.0022159E-18
  -28.71750        1.0023273E-18
  -28.57500        1.0020216E-18
  -28.43250        1.0018473E-18
  -28.29000        1.0023454E-18
  -28.14750        1.0039345E-18
  -28.00500        1.0068208E-18
  -27.86250        1.0109465E-18
  -27.72000        1.0159930E-18
  -27.57750        1.0214390E-18
  -27.43500        1.0266644E-18
  -27.29250        1.0310771E-18
  -27.15000        1.0342384E-18
  -27.00750        1.0359515E-18
  -26.86500        1.0363027E-18
  -26.72250        1.0356383E-18
  -26.58000        1.0344927E-18
  -26.43750        1.0334787E-18
  -26.29500        1.0331683E-18
  -26.15250        1.0339822E-18
  -26.01000        1.0361163E-18
  -25.86750        1.0395024E-18
  -25.72500        1.0438274E-18
  -25.58250        1.0485903E-18
  -25.44000        1.0532003E-18
  -25.29750        1.0570985E-18
  -25.15500        1.0598667E-18
  -25.01250        1.0613221E-18
  -24.87000        1.0615518E-18
  -24.72750        1.0609010E-18
  -24.58500        1.0598948E-18
  -24.44250        1.0591282E-18
  -24.30000        1.0591385E-18
  -24.15750        1.0602951E-18
  -24.01500        1.0627260E-18
  -23.87250        1.0662971E-18
  -23.73000        1.0706449E-18
  -23.58750        1.0752513E-18
  -23.44500        1.0795484E-18
  -23.30250        1.0830285E-18
  -23.16000        1.0853449E-18
  -23.01750        1.0863799E-18
  -22.87500        1.0862714E-18
  -22.73250        1.0853888E-18
  -22.59000        1.0842615E-18
  -22.44750        1.0834705E-18
  -22.30500        1.0835256E-18
  -22.16250        1.0847562E-18
  -22.02000        1.0872403E-18
  -21.87750        1.0907870E-18
  -21.73500        1.0949801E-18
  -21.59250        1.0992700E-18
  -21.45000        1.1030895E-18
  -21.30750        1.1059737E-18
  -21.16500        1.1076528E-18
  -21.02250        1.1081045E-18
  -20.88000        1.1075574E-18
  -20.73750        1.1064460E-18
  -20.59500        1.1053248E-18
  -20.45250        1.1047635E-18
  -20.31000        1.1052304E-18
  -20.16750        1.1069983E-18
  -20.02500        1.1100812E-18
  -19.88250        1.1142259E-18
  -19.74000        1.1189604E-18
  -19.59750        1.1236878E-18
  -19.45500        1.1278157E-18
  -19.31250        1.1308812E-18
  -19.17000        1.1326541E-18
  -19.02750        1.1331841E-18
  -18.88500        1.1327915E-18
  -18.74250        1.1320002E-18
  -18.60000        1.1314302E-18
  -18.45750        1.1316714E-18
  -18.31500        1.1331695E-18
  -18.17250        1.1361334E-18
  -18.03000        1.1404926E-18
  -17.88750        1.1459009E-18
  -17.74500        1.1517919E-18
  -17.60250        1.1574802E-18
  -17.46000        1.1622856E-18
  -17.31750        1.1656661E-18
  -17.17500        1.1673253E-18
  -17.03250        1.1672744E-18
  -16.89000        1.1658322E-18
  -16.74750        1.1635619E-18
  -16.60500        1.1611581E-18
  -16.46250        1.1593086E-18
  -16.32000        1.1585604E-18
  -16.17750        1.1592225E-18
  -16.03500        1.1613142E-18
  -15.89250        1.1645754E-18
  -15.75000        1.1685252E-18
  -15.60750        1.1725629E-18
  -15.46500        1.1760841E-18
  -15.32250        1.1785957E-18
  -15.18000        1.1798100E-18
  -15.03750        1.1796993E-18
  -14.89500        1.1785012E-18
  -14.75250        1.1766687E-18
  -14.61000        1.1747733E-18
  -14.46750        1.1733830E-18
  -14.32500        1.1729390E-18
  -14.18250        1.1736568E-18
  -14.04000        1.1754786E-18
  -13.89750        1.1780891E-18
  -13.75500        1.1809842E-18
  -13.61250        1.1835785E-18
  -13.47000        1.1853307E-18
  -13.32750        1.1858553E-18
  -13.18500        1.1850030E-18
  -13.04250        1.1828921E-18
  -12.90000        1.1798945E-18
  -12.75750        1.1765705E-18
  -12.61500        1.1735697E-18
  -12.47250        1.1715121E-18
  -12.33000        1.1708721E-18
  -12.18750        1.1718854E-18
  -12.04500        1.1745020E-18
  -11.90250        1.1783932E-18
  -11.76000        1.1830175E-18
  -11.61750        1.1877303E-18
  -11.47500        1.1919136E-18
  -11.33250        1.1950969E-18
  -11.19000        1.1970443E-18
  -11.04750        1.1977896E-18
  -10.90500        1.1976145E-18
  -10.76250        1.1969797E-18
  -10.62000        1.1964227E-18
  -10.47750        1.1964476E-18
  -10.33500        1.1974220E-18
  -10.19250        1.1994994E-18
  -10.05000        1.2025894E-18
  -9.907500        1.2063661E-18
  -9.765000        1.2103301E-18
  -9.622500        1.2139020E-18
  -9.480000        1.2165411E-18
  -9.337500        1.2178545E-18
  -9.195000        1.2176824E-18
  -9.052500        1.2161284E-18
  -8.910000        1.2135404E-18
  -8.767500        1.2104350E-18
  -8.625000        1.2073889E-18
  -8.482500        1.2049245E-18
  -8.340000        1.2034110E-18
  -8.197500        1.2030039E-18
  -8.055000        1.2036239E-18
  -7.912500        1.2049885E-18
  -7.770000        1.2066782E-18
  -7.627500        1.2082239E-18
  -7.485000        1.2092068E-18
  -7.342500        1.2093466E-18
  -7.200000        1.2085647E-18
  -7.057500        1.2070075E-18
  -6.915000        1.2050220E-18
  -6.772500        1.2030881E-18
  -6.630000        1.2017161E-18
  -6.487500        1.2013347E-18
  -6.345000        1.2021944E-18
  -6.202500        1.2043125E-18
  -6.060000        1.2074672E-18
  -5.917500        1.2112432E-18
  -5.775000        1.2151237E-18
  -5.632500        1.2185922E-18
  -5.490000        1.2212365E-18
  -5.347500        1.2228268E-18
  -5.205000        1.2233554E-18
  -5.062500        1.2230336E-18
  -4.920000        1.2222500E-18
  -4.777500        1.2214921E-18
  -4.635000        1.2212456E-18
  -4.492500        1.2218972E-18
  -4.350000        1.2236416E-18
  -4.207500        1.2264303E-18
  -4.065000        1.2299700E-18
  -3.922500        1.2337720E-18
  -3.780000        1.2372492E-18
  -3.637500        1.2398338E-18
  -3.495000        1.2410988E-18
  -3.352500        1.2408471E-18
  -3.210000        1.2391527E-18
  -3.067500        1.2363467E-18
  -2.925000        1.2329538E-18
  -2.782500        1.2295931E-18
  -2.640000        1.2268654E-18
  -2.497500        1.2252467E-18
  -2.355000        1.2250038E-18
  -2.212500        1.2261519E-18
  -2.070000        1.2284537E-18
  -1.927500        1.2314713E-18
  -1.785000        1.2346534E-18
  -1.642500        1.2374510E-18
  -1.500000        1.2394300E-18
  -1.357500        1.2403670E-18
  -1.215000        1.2402965E-18
  -1.072500        1.2395000E-18
 -0.9300000        1.2384429E-18
 -0.7875000        1.2376699E-18
 -0.6450000        1.2376818E-18
 -0.5025000        1.2388280E-18
 -0.3600000        1.2412301E-18
 -0.2175000        1.2447519E-18
 -7.5000003E-02    1.2490244E-18
  6.7500003E-02    1.2535143E-18
  0.2100000        1.2576217E-18
  0.3525000        1.2607969E-18
  0.4950000        1.2626448E-18
  0.6375000        1.2630086E-18
  0.7800000        1.2620084E-18
  0.9225000        1.2600233E-18
   1.065000        1.2576221E-18
   1.207500        1.2554533E-18
   1.350000        1.2541095E-18
   1.492500        1.2540068E-18
   1.635000        1.2552982E-18
   1.777500        1.2578439E-18
   1.920000        1.2612418E-18
   2.062500        1.2649117E-18
   2.205000        1.2682107E-18
   2.347500        1.2705599E-18
   2.490000        1.2715542E-18
   2.632500        1.2710363E-18
   2.775000        1.2691270E-18
   2.917500        1.2662072E-18
   3.060000        1.2628483E-18
   3.202500        1.2597115E-18
   3.345000        1.2574241E-18
   3.487500        1.2564618E-18
   3.630000        1.2570550E-18
   3.772500        1.2591460E-18
   3.915000        1.2624062E-18
   4.057500        1.2663079E-18
   4.200000        1.2702364E-18
   4.342500        1.2736178E-18
   4.485000        1.2760290E-18
   4.627500        1.2772724E-18
   4.770000        1.2773960E-18
   4.912500        1.2766666E-18
   5.055000        1.2754990E-18
   5.197500        1.2743614E-18
   5.340000        1.2736795E-18
   5.482500        1.2737465E-18
   5.625000        1.2746634E-18
   5.767500        1.2763142E-18
   5.910000        1.2783869E-18
   6.052500        1.2804348E-18
   6.195000        1.2819735E-18
   6.337500        1.2825891E-18
   6.480000        1.2820386E-18
   6.622500        1.2803157E-18
   6.765000        1.2776638E-18
   6.907500        1.2745335E-18
   7.050000        1.2714982E-18
   7.192500        1.2691370E-18
   7.335000        1.2679233E-18
   7.477500        1.2681388E-18
   7.620000        1.2698221E-18
   7.762500        1.2727700E-18
   7.905000        1.2765794E-18
   8.047500        1.2807252E-18
   8.190000        1.2846565E-18
   8.332500        1.2878995E-18
   8.475000        1.2901465E-18
   8.617500        1.2913141E-18
   8.760000        1.2915581E-18
   8.902500        1.2912390E-18
   9.045000        1.2908435E-18
   9.187500        1.2908741E-18
   9.330000        1.2917342E-18
   9.472500        1.2936361E-18
   9.615000        1.2965476E-18
   9.757500        1.3001965E-18
   9.900000        1.3041242E-18
   10.04250        1.3077773E-18
   10.18500        1.3106138E-18
   10.32750        1.3122085E-18
   10.47000        1.3123334E-18
   10.61250        1.3109995E-18
   10.75500        1.3084608E-18
   10.89750        1.3051702E-18
   11.04000        1.3017010E-18
   11.18250        1.2986412E-18
   11.32500        1.2964847E-18
   11.46750        1.2955383E-18
   11.61000        1.2958638E-18
   11.75250        1.2972755E-18
   11.89500        1.2993856E-18
   12.03750        1.3016965E-18
   12.18000        1.3037113E-18
   12.32250        1.3050414E-18
   12.46500        1.3054846E-18
   12.60750        1.3050614E-18
   12.75000        1.3040043E-18
   12.89250        1.3027041E-18
   13.03500        1.3016325E-18
   13.17750        1.3012436E-18
   13.32000        1.3018841E-18
   13.46250        1.3037194E-18
   13.60500        1.3066891E-18
   13.74750        1.3105132E-18
   13.89000        1.3147309E-18
   14.03250        1.3187918E-18
   14.17500        1.3221630E-18
   14.31750        1.3244403E-18
   14.46000        1.3254314E-18
   14.60250        1.3251945E-18
   14.74500        1.3240235E-18
   14.88750        1.3223786E-18
   15.03000        1.3207893E-18
   15.17250        1.3197474E-18
   15.31500        1.3196108E-18
   15.45750        1.3205392E-18
   15.60000        1.3224696E-18
   15.74250        1.3251315E-18
   15.88500        1.3280983E-18
   16.02750        1.3308686E-18
   16.17000        1.3329637E-18
   16.31250        1.3340262E-18
   16.45500        1.3338989E-18
   16.59750        1.3326664E-18
   16.74000        1.3306531E-18
   16.88250        1.3283621E-18
   17.02500        1.3263747E-18
   17.16750        1.3252321E-18
   17.31000        1.3253195E-18
   17.45250        1.3267904E-18
   17.59500        1.3295337E-18
   17.73750        1.3332001E-18
   17.88000        1.3372707E-18
   18.02250        1.3411551E-18
   18.16500        1.3442959E-18
   18.30750        1.3462650E-18
   18.45000        1.3468371E-18
   18.59250        1.3460229E-18
   18.73500        1.3440702E-18
   18.87750        1.3414144E-18
   19.02000        1.3385982E-18
   19.16250        1.3361665E-18
   19.30500        1.3345589E-18
   19.44750        1.3340238E-18
   19.59000        1.3345738E-18
   19.73250        1.3359907E-18
   19.87500        1.3378845E-18
   20.01750        1.3397862E-18
   20.16000        1.3412518E-18
   20.30250        1.3419594E-18
   20.44500        1.3417717E-18
   20.58750        1.3407572E-18
   20.73000        1.3391711E-18
   20.87250        1.3374000E-18
   21.01500        1.3358848E-18
   21.15750        1.3350313E-18
   21.30000        1.3351295E-18
   21.44250        1.3362912E-18
   21.58500        1.3384242E-18
   21.72750        1.3412470E-18
   21.87000        1.3443480E-18
   22.01250        1.3472724E-18
   22.15500        1.3496243E-18
   22.29750        1.3511559E-18
   22.44000        1.3518232E-18
   22.58250        1.3517942E-18
   22.72500        1.3514086E-18
   22.86750        1.3511018E-18
   23.01000        1.3513085E-18
   23.15250        1.3523697E-18
   23.29500        1.3544586E-18
   23.43750        1.3575421E-18
   23.58000        1.3613765E-18
   23.72250        1.3655460E-18
   23.86500        1.3695325E-18
   24.00750        1.3728102E-18
   24.15000        1.3749457E-18
   24.29250        1.3756873E-18
   24.43500        1.3750219E-18
   24.57750        1.3731837E-18
   24.72000        1.3706094E-18
   24.86250        1.3678504E-18
   25.00500        1.3654577E-18
   25.14750        1.3638718E-18
   25.29000        1.3633382E-18
   25.43250        1.3638672E-18
   25.57500        1.3652469E-18
   25.71750        1.3670970E-18
   25.86000        1.3689536E-18
   26.00250        1.3703671E-18
   26.14500        1.3709915E-18
   26.28750        1.3706564E-18
   26.43000        1.3694076E-18
   26.57250        1.3675063E-18
   26.71500        1.3653889E-18
   26.85750        1.3635846E-18
   27.00000        1.3626109E-18
   27.14250        1.3628644E-18
   27.28500        1.3645292E-18
   27.42750        1.3675328E-18
   27.57000        1.3715541E-18
   27.71250        1.3760877E-18
   27.85500        1.3805472E-18
   27.99750        1.3843821E-18
   28.14000        1.3871800E-18
   28.28250        1.3887382E-18
   28.42500        1.3890877E-18
   28.56750        1.3884746E-18
   28.71000        1.3872997E-18
   28.85250        1.3860357E-18
   28.99500        1.3851347E-18
   29.13750        1.3849346E-18
   29.28000        1.3855907E-18
   29.42250        1.3870388E-18
   29.56500        1.3890049E-18
   29.70750        1.3910578E-18
   29.85000        1.3927038E-18
   29.99250        1.3934977E-18
   30.13500        1.3931506E-18
   30.27750        1.3916033E-18
   30.42000        1.3890499E-18
   30.56250        1.3859050E-18
   30.70500        1.3827248E-18
   30.84750        1.3800987E-18
   30.99000        1.3785375E-18
   31.13250        1.3783763E-18
   31.27500        1.3797147E-18
   31.41750        1.3823961E-18
   31.56000        1.3860352E-18
   31.70250        1.3900839E-18
   31.84500        1.3939291E-18
   31.98750        1.3970043E-18
   32.13000        1.3988999E-18
   32.27250        1.3994405E-18
   32.41500        1.3987260E-18
   32.55750        1.3971108E-18
   32.70000        1.3951334E-18
   32.84250        1.3934089E-18
   32.98500        1.3925046E-18
   33.12750        1.3928296E-18
   33.27000        1.3945617E-18
   33.41250        1.3976172E-18
   33.55500        1.4016765E-18
   33.69750        1.4062431E-18
   33.84000        1.4107385E-18
   33.98250        1.4146022E-18
   34.12500        1.4173902E-18
   34.26750        1.4188504E-18
   34.41000        1.4189631E-18
   34.55250        1.4179415E-18
   34.69500        1.4161826E-18
   34.83750        1.4141823E-18
   34.98000        1.4124300E-18
   35.12250        1.4113044E-18
   35.26500        1.4109988E-18
   35.40750        1.4114871E-18
   35.55000        1.4125430E-18
   35.69250        1.4138002E-18
   35.83500        1.4148427E-18
   35.97750        1.4152956E-18
   36.12000        1.4149102E-18
   36.26250        1.4136140E-18
   36.40500        1.4115305E-18
   36.54750        1.4089637E-18
   36.69000        1.4063514E-18
   36.83250        1.4041880E-18
   36.97500        1.4029423E-18
   37.11750        1.4029617E-18
   37.26000        1.4044070E-18
   37.40250        1.4072084E-18
   37.54500        1.4110741E-18
   37.68750        1.4155451E-18
   37.83000        1.4200833E-18
   37.97250        1.4241795E-18
   38.11500        1.4274475E-18
   38.25750        1.4296894E-18
   38.40000        1.4309157E-18
   38.54250        1.4313225E-18
   38.68500        1.4312343E-18
   38.82750        1.4310264E-18
   38.97000        1.4310447E-18
   39.11250        1.4315403E-18
   39.25500        1.4326196E-18
   39.39750        1.4342229E-18
   39.54000        1.4361366E-18
   39.68250        1.4380349E-18
   39.82500        1.4395485E-18
   39.96750        1.4403502E-18
   40.11000        1.4402367E-18
   40.25250        1.4391878E-18
   40.39500        1.4373860E-18
   40.53750        1.4351892E-18
   40.68000        1.4330609E-18
   40.82250        1.4314743E-18
   40.96500        1.4308162E-18
   41.10750        1.4313086E-18
   41.25000        1.4329673E-18
   41.39250        1.4356032E-18
   41.53500        1.4388595E-18
   41.67750        1.4422797E-18
   41.82000        1.4453886E-18
   41.96250        1.4477741E-18
   42.10500        1.4491596E-18
   42.24750        1.4494495E-18
   42.39000        1.4487445E-18
   42.53250        1.4473182E-18
   42.67500        1.4455558E-18
   42.81750        1.4438695E-18
   42.96000        1.4426044E-18
   43.10250        1.4419667E-18
   43.24500        1.4419787E-18
   43.38750        1.4424832E-18
   43.53000        1.4431902E-18
   43.67250        1.4437525E-18
   43.81500        1.4438513E-18
   43.95750        1.4432742E-18
   44.10000        1.4419645E-18
   44.24250        1.4400406E-18
   44.38500        1.4377796E-18
   44.52750        1.4355702E-18
   44.67000        1.4338435E-18
   44.81250        1.4329895E-18
   44.95500        1.4332776E-18
   45.09750        1.4347973E-18
   45.24000        1.4374271E-18
   45.38250        1.4408497E-18
   45.52500        1.4446100E-18
   45.66750        1.4482048E-18
   45.81000        1.4511825E-18
   45.95250        1.4532372E-18
   46.09500        1.4542630E-18
   46.23750        1.4543665E-18
   46.38000        1.4538346E-18
   46.52250        1.4530674E-18
   46.66500        1.4524982E-18
   46.80750        1.4525069E-18
   46.95000        1.4533529E-18
   47.09250        1.4551283E-18
   47.23500        1.4577403E-18
   47.37750        1.4609282E-18
   47.52000        1.4643085E-18
   47.66250        1.4674488E-18
   47.80500        1.4699553E-18
   47.94750        1.4715573E-18
   48.09000        1.4721680E-18
   48.23250        1.4719042E-18
   48.37500        1.4710599E-18
   48.51750        1.4700350E-18
   48.66000        1.4692434E-18
   48.80250        1.4690181E-18
   48.94500        1.4695393E-18
   49.08750        1.4708030E-18
   49.23000        1.4726249E-18
   49.37250        1.4746841E-18
   49.51500        1.4765842E-18
   49.65750        1.4779304E-18
   49.80000        1.4784009E-18
   49.94250        1.4778070E-18
   50.08500        1.4761379E-18
   50.22750        1.4735766E-18
   50.37000        1.4704762E-18
   50.51250        1.4673040E-18
   50.65500        1.4645548E-18
   50.79750        1.4626538E-18
   50.94000        1.4618668E-18
   51.08250        1.4622473E-18
   51.22500        1.4636275E-18
   51.36750        1.4656588E-18
   51.51000        1.4678896E-18
   51.65250        1.4698602E-18
   51.79500        1.4711902E-18
   51.93750        1.4716486E-18
   52.08000        1.4711900E-18
   52.22250        1.4699546E-18
   52.36500        1.4682446E-18
   52.50750        1.4664662E-18
   52.65000        1.4650587E-18
   52.79250        1.4644103E-18
   52.93500        1.4647821E-18
   53.07750        1.4662486E-18
   53.22000        1.4686764E-18
   53.36250        1.4717457E-18
   53.50500        1.4750126E-18
   53.64750        1.4780031E-18
   53.79000        1.4803120E-18
   53.93250        1.4816838E-18
   54.07500        1.4820617E-18
   54.21750        1.4815919E-18
   54.36000        1.4805873E-18
   54.50250        1.4794642E-18
   54.64500        1.4786601E-18
   54.78750        1.4785531E-18
   54.93000        1.4793931E-18
   55.07250        1.4812491E-18
   55.21500        1.4839917E-18
   55.35750        1.4873102E-18
   55.50000        1.4907641E-18
   55.64250        1.4938665E-18
   55.78500        1.4961868E-18
   55.92750        1.4974373E-18
   56.07000        1.4975365E-18
   56.21250        1.4966216E-18
   56.35500        1.4950193E-18
   56.49750        1.4931680E-18
   56.64000        1.4915271E-18
   56.78250        1.4904836E-18
   56.92500        1.4902848E-18
   57.06750        1.4909941E-18
   57.21000        1.4924864E-18
   57.35250        1.4944756E-18
   57.49500        1.4965662E-18
   57.63750        1.4983276E-18
   57.78000        1.4993806E-18
   57.92250        1.4994760E-18
   58.06500        1.4985601E-18
   58.20750        1.4967987E-18
   58.35000        1.4945530E-18
   58.49250        1.4923090E-18
   58.63500        1.4905770E-18
   58.77750        1.4897773E-18
   58.92000        1.4901531E-18
   59.06250        1.4917208E-18
   59.20500        1.4942747E-18
   59.34750        1.4974338E-18
   59.49000        1.5007251E-18
   59.63250        1.5036713E-18
   59.77500        1.5058772E-18
   59.91750        1.5070968E-18
   60.06000        1.5072735E-18
   60.20250        1.5065515E-18
   60.34500        1.5052529E-18
   60.48750        1.5038232E-18
   60.63000        1.5027433E-18
   60.77250        1.5024297E-18
   60.91500        1.5031401E-18
   61.05750        1.5049081E-18
   61.20000        1.5075280E-18
   61.34250        1.5105972E-18
   61.48500        1.5136023E-18
   61.62750        1.5160313E-18
   61.77000        1.5174803E-18
   61.91250        1.5177324E-18
   62.05500        1.5167923E-18
   62.19750        1.5148786E-18
   62.34000        1.5123760E-18
   62.48250        1.5097635E-18
   62.62500        1.5075320E-18
   62.76750        1.5060988E-18
   62.91000        1.5057340E-18
   63.05250        1.5065077E-18
   63.19500        1.5082714E-18
   63.33750        1.5106813E-18
   63.48000        1.5132655E-18
   63.62250        1.5155213E-18
   63.76500        1.5170215E-18
   63.90750        1.5175088E-18
   64.05000        1.5169450E-18
   64.19250        1.5155154E-18
   64.33500        1.5135831E-18
   64.47750        1.5116095E-18
   64.62000        1.5100610E-18
   64.76250        1.5093276E-18
   64.90500        1.5096547E-18
   65.04750        1.5111097E-18
   65.19000        1.5135729E-18
   65.33250        1.5167610E-18
   65.47500        1.5202752E-18
   65.61750        1.5236727E-18
   65.76000        1.5265507E-18
   65.90250        1.5286238E-18
   66.04500        1.5297813E-18
   66.18750        1.5301041E-18
   66.33000        1.5298339E-18
   66.47250        1.5293083E-18
   66.61500        1.5288767E-18
   66.75750        1.5288156E-18
   66.90000        1.5292705E-18
   67.04250        1.5302351E-18
   67.18500        1.5315606E-18
   67.32750        1.5329936E-18
   67.47000        1.5342319E-18
   67.61250        1.5349806E-18
   67.75500        1.5350101E-18
   67.89750        1.5342061E-18
   68.04000        1.5326009E-18
   68.18250        1.5303869E-18
   68.32500        1.5278946E-18
   68.46750        1.5255372E-18
   68.61000        1.5237302E-18
   68.75250        1.5228016E-18
   68.89500        1.5229189E-18
   69.03750        1.5240509E-18
   69.18000        1.5259758E-18
   69.32250        1.5283345E-18
   69.46500        1.5307088E-18
   69.60750        1.5327053E-18
   69.75000        1.5340255E-18
   69.89250        1.5345093E-18
   70.03500        1.5341536E-18
   70.17750        1.5331071E-18
   70.32000        1.5316413E-18
   70.46250        1.5301087E-18
   70.60500        1.5288826E-18
   70.74750        1.5282869E-18
   70.89000        1.5285290E-18
   71.03250        1.5296482E-18
   71.17500        1.5314976E-18
   71.31750        1.5337735E-18
   71.46000        1.5360785E-18
   71.60250        1.5380145E-18
   71.74500        1.5392732E-18
   71.88750        1.5396999E-18
   72.03000        1.5393199E-18
   72.17250        1.5383194E-18
   72.31500        1.5369985E-18
   72.45750        1.5357075E-18
   72.60000        1.5347829E-18
   72.74250        1.5344901E-18
   72.88500        1.5349825E-18
   73.02750        1.5362767E-18
   73.17000        1.5382470E-18
   73.31250        1.5406440E-18
   73.45500        1.5431407E-18
   73.59750        1.5453983E-18
   73.74000        1.5471447E-18
   73.88250        1.5482368E-18
   74.02500        1.5486970E-18
   74.16750        1.5487047E-18
   74.31000        1.5485466E-18
   74.45250        1.5485398E-18
   74.59500        1.5489497E-18
   74.73750        1.5499252E-18
   74.88000        1.5514672E-18
   75.02250        1.5534293E-18
   75.16500        1.5555457E-18
   75.30750        1.5574845E-18
   75.45000        1.5589043E-18
   75.59250        1.5595202E-18
   75.73500        1.5591605E-18
   75.87750        1.5578127E-18
   76.02000        1.5556434E-18
   76.16250        1.5529860E-18
   76.30500        1.5502854E-18
   76.44750        1.5480132E-18
   76.59000        1.5465683E-18
   76.73250        1.5461913E-18
   76.87500        1.5469080E-18
   77.01750        1.5485311E-18
   77.16000        1.5507028E-18
   77.30250        1.5529749E-18
   77.44500        1.5549006E-18
   77.58750        1.5561188E-18
   77.73000        1.5564164E-18
   77.87250        1.5557630E-18
   78.01500        1.5543163E-18
   78.15750        1.5524007E-18
   78.30000        1.5504548E-18
   78.44250        1.5489589E-18
   78.58500        1.5483436E-18
   78.72750        1.5488990E-18
   78.87000        1.5507077E-18
   79.01250        1.5536181E-18
   79.15500        1.5572726E-18
   79.29750        1.5611863E-18
   79.44000        1.5648538E-18
   79.58250        1.5678582E-18
   79.72500        1.5699521E-18
   79.86750        1.5710942E-18
   80.01000        1.5714378E-18
   80.15250        1.5712797E-18
   80.29500        1.5709892E-18
   80.43750        1.5709299E-18
   80.58000        1.5713890E-18
   80.72250        1.5725180E-18
   80.86500        1.5742958E-18
   81.00750        1.5765193E-18
   81.15000        1.5788261E-18
   81.29250        1.5807590E-18
   81.43500        1.5818574E-18
   81.57750        1.5817618E-18
   81.72000        1.5803065E-18
   81.86250        1.5775715E-18
   82.00500        1.5738775E-18
   82.14750        1.5697237E-18
   82.29000        1.5656878E-18
   82.43250        1.5623119E-18
   82.57500        1.5600047E-18
   82.71750        1.5589763E-18
   82.86000        1.5592159E-18
   83.00250        1.5605080E-18
   83.14500        1.5624822E-18
   83.28750        1.5646811E-18
   83.43000        1.5666408E-18
   83.57250        1.5679744E-18
   83.71500        1.5684462E-18
   83.85750        1.5680210E-18
   84.00000        1.5668740E-18
   84.14250        1.5653543E-18
   84.28500        1.5639055E-18
   84.42750        1.5629610E-18
   84.57000        1.5628402E-18
   84.71250        1.5636772E-18
   84.85500        1.5653909E-18
   84.99750        1.5677086E-18
   85.14000        1.5702291E-18
   85.28250        1.5725059E-18
   85.42500        1.5741323E-18
   85.56750        1.5748130E-18
   85.71000        1.5744135E-18
   85.85250        1.5729851E-18
   85.99500        1.5707609E-18
   86.13750        1.5681197E-18
   86.28000        1.5655234E-18
   86.42250        1.5634327E-18
   86.56500        1.5622141E-18
   86.70750        1.5620662E-18
   86.85000        1.5629765E-18
   86.99250        1.5647322E-18
   87.13500        1.5669761E-18
   87.27750        1.5692931E-18
   87.42000        1.5713064E-18
   87.56250        1.5727531E-18
   87.70500        1.5735285E-18
   87.84750        1.5736917E-18
   87.99000        1.5734426E-18
   88.13250        1.5730745E-18
   88.27500        1.5729182E-18
   88.41750        1.5732821E-18
   88.56000        1.5743937E-18
   88.70250        1.5763451E-18
   88.84500        1.5790629E-18
   88.98750        1.5823077E-18
   89.13000        1.5857095E-18
   89.27250        1.5888448E-18
   89.41500        1.5913322E-18
   89.55750        1.5929239E-18
   89.70000        1.5935690E-18
   89.84250        1.5934250E-18
   89.98500        1.5928207E-18
   90.12750        1.5921789E-18
   90.27000        1.5919240E-18
   90.41250        1.5923982E-18
   90.55500        1.5937996E-18
   90.69750        1.5961490E-18
   90.84000        1.5992869E-18
   90.98250        1.6028971E-18
   91.12500        1.6065475E-18
   91.26750        1.6097574E-18
   91.41000        1.6120794E-18
   91.55250        1.6131850E-18
   91.69500        1.6129376E-18
   91.83750        1.6114341E-18
   91.98000        1.6089948E-18
   92.12250        1.6061022E-18
   92.26500        1.6032985E-18
   92.40750        1.6010739E-18
   92.55000        1.5997682E-18
   92.69250        1.5995127E-18
   92.83500        1.6002216E-18
   92.97750        1.6016280E-18
   93.12000        1.6033510E-18
   93.26250        1.6049755E-18
   93.40500        1.6061326E-18
   93.54750        1.6065664E-18
   93.69000        1.6061842E-18
   93.83250        1.6050785E-18
   93.97500        1.6035159E-18
   94.11750        1.6018910E-18
   94.26000        1.6006476E-18
   94.40250        1.6001802E-18
   94.54500        1.6007407E-18
   94.68750        1.6023754E-18
   94.83000        1.6049071E-18
   94.97250        1.6079754E-18
   95.11500        1.6111129E-18
   95.25750        1.6138495E-18
   95.40000        1.6158066E-18
   95.54250        1.6167693E-18
   95.68500        1.6167195E-18
   95.82750        1.6158356E-18
   95.97000        1.6144523E-18
   96.11250        1.6129997E-18
   96.25500        1.6119234E-18
   96.39750        1.6115986E-18
   96.54000        1.6122482E-18
   96.68250        1.6138893E-18
   96.82500        1.6163169E-18
   96.96750        1.6191385E-18
   97.11000        1.6218556E-18
   97.25250        1.6239737E-18
   97.39500        1.6251123E-18
   97.53750        1.6250866E-18
   97.68000        1.6239415E-18
   97.82250        1.6219333E-18
   97.96500        1.6194631E-18
   98.10750        1.6169925E-18
   98.25000        1.6149529E-18
   98.39250        1.6136665E-18
   98.53500        1.6132952E-18
   98.67750        1.6138111E-18
   98.82000        1.6149964E-18
   98.96250        1.6164769E-18
   99.10500        1.6177855E-18
   99.24750        1.6184527E-18
   99.39000        1.6181063E-18