  -30.00000        4.8966441E-18
  -29.85750        4.9019918E-18
  -29.71500        4.9117699E-18
  -29.57250        4.9243902E-18
  -29.43000        4.9379039E-18
  -29.28750        4.9503790E-18
  -29.14500        4.9602729E-18
  -29.00250        4.9667191E-18
  -28.86000        4.9696813E-18
  -28.71750        4.9699356E-18
  -28.57500        4.9688901E-18
  -28.43250        4.9682792E-18
  -28.29000        4.9697938E-18
  -28.14750        4.9747221E-18
  -28.00500        4.9836705E-18
  -27.86250        4.9964273E-18
  -27.72000        5.0119911E-18
  -27.57750        5.0287647E-18
  -27.43500        5.0448670E-18
  -27.29250        5.0585068E-18
  -27.15000        5.0683436E-18
  -27.00750        5.0737567E-18
  -26.86500        5.0749685E-18
  -26.72250        5.0730052E-18
  -26.58000        5.0694901E-18
  -26.43750        5.0663241E-18
  -26.29500        5.0653079E-18
  -26.15250        5.0677878E-18
  -26.01000        5.0743932E-18
  -25.86750        5.0849191E-18
  -25.72500        5.0983728E-18
  -25.58250        5.1131801E-18
  -25.44000        5.1275053E-18
  -25.29750        5.1396235E-18
  -25.15500        5.1482687E-18
  -25.01250        5.1528890E-18
  -24.87000        5.1537513E-18
  -24.72750        5.1518901E-18
  -24.58500        5.1488899E-18
  -24.44250        5.1465585E-18
  -24.30000        5.1465623E-18
  -24.15750        5.1500794E-18
  -24.01500        5.1575679E-18
  -23.87250        5.1686654E-18
  -23.73000        5.1822679E-18
  -23.58750        5.1967531E-18
  -23.44500        5.2103110E-18
  -23.30250        5.2213059E-18
  -23.16000        5.2286120E-18
  -23.01750        5.2318380E-18
  -22.87500        5.2314120E-18
  -22.73250        5.2284908E-18
  -22.59000        5.2247321E-18
  -22.44750        5.2219573E-18
  -22.30500        5.2217844E-18
  -22.16250        5.2252987E-18
  -22.02000        5.2328314E-18
  -21.87750        5.2438945E-18
  -21.73500        5.2572775E-18
  -21.59250        5.2712970E-18
  -21.45000        5.2841356E-18
  -21.30750        5.2942148E-18
  -21.16500        5.3005097E-18
  -21.02250        5.3027575E-18
  -20.88000        5.3015068E-18
  -20.73750        5.2980037E-18
  -20.59500        5.2939361E-18
  -20.45250        5.2910914E-18
  -20.31000        5.2909913E-18
  -20.16750        5.2945846E-18
  -20.02500        5.3020503E-18
  -19.88250        5.3127623E-18
  -19.74000        5.3254177E-18
  -19.59750        5.3383044E-18
  -19.45500        5.3496554E-18
  -19.31250        5.3580182E-18
  -19.17000        5.3625577E-18
  -19.02750        5.3632406E-18
  -18.88500        5.3608434E-18
  -18.74250        5.3568034E-18
  -18.60000        5.3529285E-18
  -18.45750        5.3510297E-18
  -18.31500        5.3525513E-18
  -18.17250        5.3582688E-18
  -18.03000        5.3681251E-18
  -17.88750        5.3812255E-18
  -17.74500        5.3960073E-18
  -17.60250        5.4105342E-18
  -17.46000        5.4228799E-18
  -17.31750        5.4315016E-18
  -17.17500        5.4355523E-18
  -17.03250        5.4350460E-18
  -16.89000        5.4308618E-18
  -16.74750        5.4245665E-18
  -16.60500        5.4181087E-18
  -16.46250        5.4134302E-18
  -16.32000        5.4120827E-18
  -16.17750        5.4149282E-18
  -16.03500        5.4219733E-18
  -15.89250        5.4323796E-18
  -15.75000        5.4446422E-18
  -15.60750        5.4568969E-18
  -15.46500        5.4672995E-18
  -15.32250        5.4743950E-18
  -15.18000        5.4774101E-18
  -15.03750        5.4764026E-18
  -14.89500        5.4722485E-18
  -14.75250        5.4664599E-18
  -14.61000        5.4608735E-18
  -14.46750        5.4572749E-18
  -14.32500        5.4570275E-18
  -14.18250        5.4607904E-18
  -14.04000        5.4683781E-18
  -13.89750        5.4787936E-18
  -13.75500        5.4904279E-18
  -13.61250        5.5013806E-18
  -13.47000        5.5098459E-18
  -13.32750        5.5144732E-18
  -13.18500        5.5146394E-18
  -13.04250        5.5105792E-18
  -12.90000        5.5033385E-18
  -12.75750        5.4945766E-18
  -12.61500        5.4862444E-18
  -12.47250        5.4802051E-18
  -12.33000        5.4778754E-18
  -12.18750        5.4799549E-18
  -12.04500        5.4863002E-18
  -11.90250        5.4959642E-18
  -11.76000        5.5074020E-18
  -11.61750        5.5187973E-18
  -11.47500        5.5284335E-18
  -11.33250        5.5350518E-18
  -11.19000        5.5381028E-18
  -11.04750        5.5378510E-18
  -10.90500        5.5353103E-18
  -10.76250        5.5320259E-18
  -10.62000        5.5297454E-18
  -10.47750        5.5300477E-18
  -10.33500        5.5340058E-18
  -10.19250        5.5419480E-18
  -10.05000        5.5533689E-18
  -9.907500        5.5670041E-18
  -9.765000        5.5810562E-18
  -9.622500        5.5935372E-18
  -9.480000        5.6026473E-18
  -9.337500        5.6071290E-18
  -9.195000        5.6065144E-18
  -9.052500        5.6012184E-18
  -8.910000        5.5924614E-18
  -8.767500        5.5820290E-18
  -8.625000        5.5719258E-18
  -8.482500        5.5639919E-18
  -8.340000        5.5595553E-18
  -8.197500        5.5591955E-18
  -8.055000        5.5626581E-18
  -7.912500        5.5689335E-18
  -7.770000        5.5764890E-18
  -7.627500        5.5835932E-18
  -7.485000        5.5886791E-18
  -7.342500        5.5906710E-18
  -7.200000        5.5892036E-18
  -7.057500        5.5847025E-18
  -6.915000        5.5783001E-18
  -6.772500        5.5715995E-18
  -6.630000        5.5663473E-18
  -6.487500        5.5640655E-18
  -6.345000        5.5657393E-18
  -6.202500        5.5716045E-18
  -6.060000        5.5810947E-18
  -5.917500        5.5929561E-18
  -5.775000        5.6054965E-18
  -5.632500        5.6169261E-18
  -5.490000        5.6257087E-18
  -5.347500        5.6308662E-18
  -5.205000        5.6321603E-18
  -5.062500        5.6301362E-18
  -4.920000        5.6259961E-18
  -4.777500        5.6213532E-18
  -4.635000        5.6178947E-18
  -4.492500        5.6170349E-18
  -4.350000        5.6196182E-18
  -4.207500        5.6257405E-18
  -4.065000        5.6347250E-18
  -3.922500        5.6452612E-18
  -3.780000        5.6556766E-18
  -3.637500        5.6642876E-18
  -3.495000        5.6697540E-18
  -3.352500        5.6713674E-18
  -3.210000        5.6692035E-18
  -3.067500        5.6641172E-18
  -2.925000        5.6575775E-18
  -2.782500        5.6513807E-18
  -2.640000        5.6472911E-18
  -2.497500        5.6466918E-18
  -2.355000        5.6503024E-18
  -2.212500        5.6580262E-18
  -2.070000        5.6689599E-18
  -1.927500        5.6815583E-18
  -1.785000        5.6939350E-18
  -1.642500        5.7042292E-18
  -1.500000        5.7109790E-18
  -1.357500        5.7134097E-18
  -1.215000        5.7115887E-18
  -1.072500        5.7064076E-18
 -0.9300000        5.6994014E-18
 -0.7875000        5.6924328E-18
 -0.6450000        5.6873184E-18
 -0.5025000        5.6854679E-18
 -0.3600000        5.6876054E-18
 -0.2175000        5.6936330E-18
 -7.5000003E-02    5.7026580E-18
  6.7500003E-02    5.7131702E-18
  0.2100000        5.7233508E-18
  0.3525000        5.7314311E-18
  0.4950000        5.7360492E-18
  0.6375000        5.7365277E-18
  0.7800000        5.7330135E-18
  0.9225000        5.7264510E-18
   1.065000        5.7183984E-18
   1.207500        5.7107114E-18
   1.350000        5.7051697E-18
   1.492500        5.7031154E-18
   1.635000        5.7051879E-18
   1.777500        5.7112015E-18
   1.920000        5.7201938E-18
   2.062500        5.7306304E-18
   2.205000        5.7407158E-18
   2.347500        5.7487601E-18
   2.490000        5.7535135E-18
   2.632500        5.7544110E-18
   2.775000        5.7516854E-18
   2.917500        5.7463154E-18
   3.060000        5.7398319E-18
   3.202500        5.7340115E-18
   3.345000        5.7305129E-18
   3.487500        5.7305418E-18
   3.630000        5.7346017E-18
   3.772500        5.7423896E-18
   3.915000        5.7528608E-18
   4.057500        5.7644455E-18
   4.200000        5.7753763E-18
   4.342500        5.7840505E-18
   4.485000        5.7893598E-18
   4.627500        5.7909087E-18
   4.770000        5.7890897E-18
   4.912500        5.7849943E-18
   5.055000        5.7801855E-18
   5.197500        5.7763805E-18
   5.340000        5.7750946E-18
   5.482500        5.7773342E-18
   5.625000        5.7833759E-18
   5.767500        5.7926999E-18
   5.910000        5.8040741E-18
   6.052500        5.8157948E-18
   6.195000        5.8260217E-18
   6.337500        5.8331511E-18
   6.480000        5.8361447E-18
   6.622500        5.8347492E-18
   6.765000        5.8295504E-18
   6.907500        5.8218671E-18
   7.050000        5.8134882E-18
   7.192500        5.8063294E-18
   7.335000        5.8020582E-18
   7.477500        5.8017844E-18
   7.620000        5.8058509E-18
   7.762500        5.8137819E-18
   7.905000        5.8243842E-18
   8.047500        5.8359908E-18
   8.190000        5.8467872E-18
   8.332500        5.8551723E-18
   8.475000        5.8600750E-18
   8.617500        5.8611632E-18
   8.760000        5.8589017E-18
   8.902500        5.8544407E-18
   9.045000        5.8493705E-18
   9.187500        5.8453752E-18
   9.330000        5.8438755E-18
   9.472500        5.8457305E-18
   9.615000        5.8510592E-18
   9.757500        5.8592172E-18
   9.900000        5.8689358E-18
   10.04250        5.8785774E-18
   10.18500        5.8864712E-18
   10.32750        5.8912498E-18
   10.47000        5.8921274E-18
   10.61250        5.8890665E-18
   10.75500        5.8827964E-18
   10.89750        5.8746806E-18
   11.04000        5.8664493E-18
   11.18250        5.8598616E-18
   11.32500        5.8563494E-18
   11.46750        5.8567295E-18
   11.61000        5.8610399E-18
   11.75250        5.8685400E-18
   11.89500        5.8778731E-18
   12.03750        5.8873554E-18
   12.18000        5.8953311E-18
   12.32250        5.9005134E-18
   12.46500        5.9022505E-18
   12.60750        5.9006495E-18
   12.75000        5.8965574E-18
   12.89250        5.8913863E-18
   13.03500        5.8868285E-18
   13.17750        5.8845149E-18
   13.32000        5.8856758E-18
   13.46250        5.8908813E-18
   13.60500        5.8999017E-18
   13.74750        5.9117325E-18
   13.89000        5.9247763E-18
   14.03250        5.9371558E-18
   14.17500        5.9470862E-18
   14.31750        5.9532387E-18
   14.46000        5.9550101E-18
   14.60250        5.9526444E-18
   14.74500        5.9471829E-18
   14.88750        5.9402536E-18
   15.03000        5.9337475E-18
   15.17250        5.9294498E-18
   15.31500        5.9286917E-18
   15.45750        5.9321001E-18
   15.60000        5.9394773E-18
   15.74250        5.9498436E-18
   15.88500        5.9616267E-18
   16.02750        5.9729719E-18
   16.17000        5.9821098E-18
   16.31250        5.9877090E-18
   16.45500        5.9891483E-18
   16.59750        5.9866428E-18
   16.74000        5.9811978E-18
   16.88250        5.9744030E-18
   17.02500        5.9681011E-18
   17.16750        5.9640090E-18
   17.31000        5.9633704E-18
   17.45250        5.9667123E-18
   17.59500        5.9737458E-18
   17.73750        5.9834362E-18
   17.88000        5.9942144E-18
   18.02250        6.0042915E-18
   18.16500        6.0120132E-18
   18.30750        6.0161851E-18
   18.45000        6.0163146E-18
   18.59250        6.0127072E-18
   18.73500        6.0064157E-18
   18.87750        5.9990306E-18
   19.02000        5.9923598E-18
   19.16250        5.9880643E-18
   19.30500        5.9873140E-18
   19.44750        5.9905557E-18
   19.59000        5.9974259E-18
   19.73250        6.0068351E-18
   19.87500        6.0172046E-18
   20.01750        6.0267937E-18
   20.16000        6.0340526E-18
   20.30250        6.0379337E-18
   20.44500        6.0380930E-18
   20.58750        6.0349489E-18
   20.73000        6.0295962E-18
   20.87250        6.0235830E-18
   21.01500        6.0186017E-18
   21.15750        6.0161450E-18
   21.30000        6.0171972E-18
   21.44250        6.0220271E-18
   21.58500        6.0301239E-18
   21.72750        6.0402924E-18
   21.87000        6.0508981E-18
   22.01250        6.0602064E-18
   22.15500        6.0667432E-18
   22.29750        6.0695970E-18
   22.44000        6.0686060E-18
   22.58250        6.0643828E-18
   22.72500        6.0581823E-18
   22.86750        6.0516480E-18
   23.01000        6.0464769E-18
   23.15250        6.0440892E-18
   23.29500        6.0453440E-18
   23.43750        6.0503708E-18
   23.58000        6.0585359E-18
   23.72250        6.0685647E-18
   23.86500        6.0787816E-18
   24.00750        6.0874504E-18
   24.15000        6.0931220E-18
   24.29250        6.0949364E-18
   24.43500        6.0928060E-18
   24.57750        6.0874343E-18
   24.72000        6.0801745E-18
   24.86250        6.0727485E-18
   25.00500        6.0668995E-18
   25.14750        6.0640396E-18
   25.29000        6.0649768E-18
   25.43250        6.0697686E-18
   25.57500        6.0777253E-18
   25.71750        6.0875575E-18
   25.86000        6.0976384E-18
   26.00250        6.1063246E-18
   26.14500        6.1122845E-18
   26.28750        6.1147631E-18
   26.43000        6.1137378E-18
   26.57250        6.1099278E-18
   26.71500        6.1046512E-18
   26.85750        6.0995529E-18
   27.00000        6.0962611E-18
   27.14250        6.0960411E-18
   27.28500        6.0995289E-18
   27.42750        6.1065947E-18
   27.57000        6.1163732E-18
   27.71250        6.1274446E-18
   27.85500        6.1381293E-18
   27.99750        6.1468238E-18
   28.14000        6.1523204E-18
   28.28250        6.1540438E-18
   28.42500        6.1521537E-18
   28.56750        6.1475182E-18
   28.71000        6.1415394E-18
   28.85250        6.1358798E-18
   28.99500        6.1321289E-18
   29.13750        6.1314796E-18
   29.28000        6.1344785E-18
   29.42250        6.1409049E-18
   29.56500        6.1498107E-18
   29.70750        6.1597154E-18
   29.85000        6.1689137E-18
   29.99250        6.1758343E-18
   30.13500        6.1793663E-18
   30.27750        6.1790834E-18
   30.42000        6.1753280E-18
   30.56250        6.1691300E-18
   30.70500        6.1619972E-18
   30.84750        6.1556114E-18
   30.99000        6.1514974E-18
   31.13250        6.1507219E-18
   31.27500        6.1536782E-18
   31.41750        6.1600041E-18
   31.56000        6.1686440E-18
   31.70250        6.1780515E-18
   31.84500        6.1865012E-18
   31.98750        6.1924416E-18
   32.13000        6.1948243E-18
   32.27250        6.1933304E-18
   32.41500        6.1884492E-18
   32.55750        6.1813768E-18
   32.70000        6.1737783E-18
   32.84250        6.1674479E-18
   32.98500        6.1639493E-18
   33.12750        6.1643096E-18
   33.27000        6.1688210E-18
   33.41250        6.1769911E-18
   33.55500        6.1876352E-18
   33.69750        6.1991037E-18
   33.84000        6.2095882E-18
   33.98250        6.2174675E-18
   34.12500        6.2216175E-18
   34.26750        6.2216303E-18
   34.41000        6.2179018E-18
   34.55250        6.2115494E-18
   34.69500        6.2041900E-18
   34.83750        6.1976073E-18
   34.98000        6.1933883E-18
   35.12250        6.1926029E-18
   35.26500        6.1955989E-18
   35.40750        6.2019508E-18
   35.55000        6.2105696E-18
   35.69250        6.2199404E-18
   35.83500        6.2284380E-18
   35.97750        6.2346505E-18
   36.12000        6.2376565E-18
   36.26250        6.2372007E-18
   36.40500        6.2337448E-18
   36.54750        6.2283739E-18
   36.69000        6.2225902E-18
   36.83250        6.2180093E-18
   36.97500        6.2160311E-18
   37.11750        6.2175457E-18
   37.26000        6.2227462E-18
   37.40250        6.2310779E-18
   37.54500        6.2413581E-18
   37.68750        6.2520255E-18
   37.83000        6.2614690E-18
   37.97250        6.2683677E-18
   38.11500        6.2719539E-18
   38.25750        6.2721582E-18
   38.40000        6.2696097E-18
   38.54250        6.2654982E-18
   38.68500        6.2613230E-18
   38.82750        6.2585912E-18
   38.97000        6.2585130E-18
   39.11250        6.2617494E-18
   39.25500        6.2682676E-18
   39.39750        6.2773239E-18
   39.54000        6.2876021E-18
   39.68250        6.2974666E-18
   39.82500        6.3052992E-18
   39.96750        6.3098371E-18
   40.11000        6.3104451E-18
   40.25250        6.3072547E-18
   40.39500        6.3011372E-18
   40.53750        6.2935259E-18
   40.68000        6.2861152E-18
   40.82250        6.2805210E-18
   40.96500        6.2779580E-18
   41.10750        6.2790085E-18
   41.25000        6.2835129E-18
   41.39250        6.2906076E-18
   41.53500        6.2988927E-18
   41.67750        6.3067029E-18
   41.82000        6.3124374E-18
   41.96250        6.3148808E-18
   42.10500        6.3134585E-18
   42.24750        6.3083709E-18
   42.39000        6.3005706E-18
   42.53250        6.2915783E-18
   42.67500        6.2831812E-18
   42.81750        6.2770721E-18
   42.96000        6.2745086E-18
   43.10250        6.2760753E-18
   43.24500        6.2815827E-18
   43.38750        6.2901320E-18
   43.53000        6.3003134E-18
   43.67250        6.3104951E-18
   43.81500        6.3191429E-18
   43.95750        6.3251106E-18
   44.10000        6.3278506E-18
   44.24250        6.3275090E-18
   44.38500        6.3248877E-18
   44.52750        6.3212787E-18
   44.67000        6.3181945E-18
   44.81250        6.3170476E-18
   44.95500        6.3188435E-18
   45.09750        6.3239529E-18
   45.24000        6.3320246E-18
   45.38250        6.3420492E-18
   45.52500        6.3525746E-18
   45.66750        6.3620082E-18
   45.81000        6.3689474E-18
   45.95250        6.3724605E-18
   46.09500        6.3722632E-18
   46.23750        6.3687593E-18
   46.38000        6.3629566E-18
   46.52250        6.3562639E-18
   46.66500        6.3502217E-18
   46.80750        6.3462132E-18
   46.95000        6.3451966E-18
   47.09250        6.3475173E-18
   47.23500        6.3528369E-18
   47.37750        6.3601934E-18
   47.52000        6.3682013E-18
   47.66250        6.3753407E-18
   47.80500        6.3802881E-18
   47.94750        6.3822051E-18
   48.09000        6.3809234E-18
   48.23250        6.3769781E-18
   48.37500        6.3714964E-18
   48.51750        6.3659572E-18
   48.66000        6.3618875E-18
   48.80250        6.3605532E-18
   48.94500        6.3627113E-18
   49.08750        6.3684582E-18
   49.23000        6.3772002E-18
   49.37250        6.3877513E-18
   49.51500        6.3985407E-18
   49.65750        6.4079002E-18
   49.80000        6.4143803E-18
   49.94250        6.4170393E-18
   50.08500        6.4156389E-18
   50.22750        6.4107052E-18
   50.37000        6.4034289E-18
   50.51250        6.3954296E-18
   50.65500        6.3884226E-18
   50.79750        6.3838785E-18
   50.94000        6.3827382E-18
   51.08250        6.3852458E-18
   51.22500        6.3909281E-18
   51.36750        6.3987164E-18
   51.51000        6.4071690E-18
   51.65250        6.4147646E-18
   51.79500        6.4201958E-18
   51.93750        6.4226219E-18
   52.08000        6.4218361E-18
   52.22250        6.4183127E-18
   52.36500        6.4131214E-18
   52.50750        6.4077199E-18
   52.65000        6.4036543E-18
   52.79250        6.4022340E-18
   52.93500        6.4042507E-18
   53.07750        6.4098097E-18
   53.22000        6.4183103E-18
   53.36250        6.4285776E-18
   53.50500        6.4391180E-18
   53.64750        6.4484271E-18
   53.79000        6.4552898E-18
   53.93250        6.4590055E-18
   54.07500        6.4595018E-18
   54.21750        6.4573251E-18
   54.36000        6.4535180E-18
   54.50250        6.4494011E-18
   54.64500        6.4463062E-18
   54.78750        6.4453016E-18
   54.93000        6.4469634E-18
   55.07250        6.4512395E-18
   55.21500        6.4574462E-18
   55.35750        6.4644041E-18
   55.50000        6.4706911E-18
   55.64250        6.4749593E-18
   55.78500        6.4762427E-18
   55.92750        6.4741764E-18
   56.07000        6.4690855E-18
   56.21250        6.4619205E-18
   56.35500        6.4540639E-18
   56.49750        6.4470548E-18
   56.64000        6.4422931E-18
   56.78250        6.4407753E-18
   56.92500        6.4429102E-18
   57.06750        6.4484436E-18
   57.21000        6.4564991E-18
   57.35250        6.4657346E-18
   57.49500        6.4745920E-18
   57.63750        6.4816036E-18
   57.78000        6.4856895E-18
   57.92250        6.4863893E-18
   58.06500        6.4839648E-18
   58.20750        6.4793521E-18
   58.35000        6.4739609E-18
   58.49250        6.4693688E-18
   58.63500        6.4669898E-18
   58.77750        6.4677769E-18
   58.92000        6.4720361E-18
   59.06250        6.4793769E-18
   59.20500        6.4887997E-18
   59.34750        6.4988942E-18
   59.49000        6.5081065E-18
   59.63250        6.5150308E-18
   59.77500        6.5186754E-18
   59.91750        6.5186572E-18
   60.06000        6.5152889E-18
   60.20250        6.5095359E-18
   60.34500        6.5028382E-18
   60.48750        6.4968246E-18
   60.63000        6.4929786E-18
   60.77250        6.4923256E-18
   60.91500        6.4952199E-18
   61.05750        6.5012781E-18
   61.20000        6.5094755E-18
   61.34250        6.5183747E-18
   61.48500        6.5264344E-18
   61.62750        6.5323259E-18
   61.77000        6.5351930E-18
   61.91250        6.5348079E-18
   62.05500        6.5316133E-18
   62.19750        6.5266316E-18
   62.34000        6.5212732E-18
   62.48250        6.5170669E-18
   62.62500        6.5153563E-18
   62.76750        6.5170169E-18
   62.91000        6.5222596E-18
   63.05250        6.5305562E-18
   63.19500        6.5407334E-18
   63.33750        6.5511993E-18
   63.48000        6.5602756E-18
   63.62250        6.5665464E-18
   63.76500        6.5691504E-18
   63.90750        6.5679414E-18
   64.05000        6.5635028E-18
   64.19250        6.5570041E-18
   64.33500        6.5499602E-18
   64.47750        6.5439276E-18
   64.62000        6.5402082E-18
   64.76250        6.5396039E-18
   64.90500        6.5422699E-18
   65.04750        6.5476768E-18
   65.19000        6.5547095E-18
   65.33250        6.5618861E-18
   65.47500        6.5676586E-18
   65.61750        6.5707431E-18
   65.76000        6.5704147E-18
   65.90250        6.5666759E-18
   66.04500        6.5602747E-18
   66.18750        6.5525513E-18
   66.33000        6.5451580E-18
   66.47250        6.5397131E-18
   66.61500        6.5374723E-18
   66.75750        6.5390906E-18
   66.90000        6.5445037E-18
   67.04250        6.5529567E-18
   67.18500        6.5631529E-18
   67.32750        6.5734951E-18
   67.47000        6.5823786E-18
   67.61250        6.5884870E-18
   67.75500        6.5910413E-18
   67.89750        6.5899606E-18
   68.04000        6.5858838E-18
   68.18250        6.5800493E-18
   68.32500        6.5740423E-18
   68.46750        6.5694597E-18
   68.61000        6.5675717E-18
   68.75250        6.5690544E-18
   68.89500        6.5738645E-18
   69.03750        6.5812661E-18
   69.18000        6.5900127E-18
   69.32250        6.5986141E-18
   69.46500        6.6056448E-18
   69.60750        6.6100156E-18
   69.75000        6.6111753E-18
   69.89250        6.6092066E-18
   70.03500        6.6048076E-18
   70.17750        6.5991675E-18
   70.32000        6.5937416E-18
   70.46250        6.5899722E-18
   70.60500        6.5889924E-18
   70.74750        6.5913833E-18
   70.89000        6.5970400E-18
   71.03250        6.6051811E-18
   71.17500        6.6145146E-18
   71.31750        6.6235119E-18
   71.46000        6.6307360E-18
   71.60250        6.6351371E-18
   71.74500        6.6362546E-18
   71.88750        6.6342813E-18
   72.03000        6.6300036E-18
   72.17250        6.6246244E-18
   72.31500        6.6195257E-18
   72.45750        6.6160060E-18
   72.60000        6.6150390E-18
   72.74250        6.6170855E-18
   72.88500        6.6219956E-18
   73.02750        6.6290275E-18
   73.17000        6.6369808E-18
   73.31250        6.6444346E-18
   73.45500        6.6500511E-18
   73.59750        6.6528635E-18
   73.74000        6.6524959E-18
   73.88250        6.6492409E-18
   74.02500        6.6439904E-18
   74.16750        6.6380322E-18
   74.31000        6.6327692E-18
   74.45250        6.6294283E-18
   74.59500        6.6288228E-18
   74.73750        6.6312055E-18
   74.88000        6.6362372E-18
   75.02250        6.6430577E-18
   75.16500        6.6504498E-18
   75.30750        6.6570635E-18
   75.45000        6.6616771E-18
   75.59250        6.6634448E-18
   75.73500        6.6620837E-18
   75.87750        6.6579598E-18
   76.02000        6.6520297E-18
   76.16250        6.6456592E-18
   76.30500        6.6403330E-18
   76.44750        6.6373361E-18
   76.59000        6.6374825E-18
   76.73250        6.6409501E-18
   76.87500        6.6472643E-18
   77.01750        6.6554158E-18
   77.16000        6.6640772E-18
   77.30250        6.6718734E-18
   77.44500        6.6776392E-18
   77.58750        6.6806316E-18
   77.73000        6.6806614E-18
   77.87250        6.6781318E-18
   78.01500        6.6739686E-18
   78.15750        6.6694522E-18
   78.30000        6.6659669E-18
   78.44250        6.6647146E-18
   78.58500        6.6664541E-18
   78.72750        6.6713204E-18
   78.87000        6.6787886E-18
   79.01250        6.6877821E-18
   79.15500        6.6969080E-18
   79.29750        6.7047625E-18
   79.44000        6.7102231E-18
   79.58250        6.7126675E-18
   79.72500        6.7120814E-18
   79.86750        6.7090345E-18
   80.01000        6.7045512E-18
   80.15250        6.6999074E-18
   80.29500        6.6963885E-18
   80.43750        6.6950448E-18
   80.58000        6.6964874E-18
   80.72250        6.7007548E-18
   80.86500        6.7072842E-18
   81.00750        6.7150100E-18
   81.15000        6.7225688E-18
   81.29250        6.7285886E-18
   81.43500        6.7319879E-18
   81.57750        6.7322117E-18
   81.72000        6.7293484E-18
   81.86250        6.7240991E-18
   82.00500        6.7176094E-18
   82.14750        6.7112182E-18
   82.29000        6.7061757E-18
   82.43250        6.7034034E-18
   82.57500        6.7033294E-18
   82.71750        6.7058192E-18
   82.86000        6.7102136E-18
   83.00250        6.7154530E-18
   83.14500        6.7202767E-18
   83.28750        6.7234708E-18
   83.43000        6.7241189E-18
   83.57250        6.7218099E-18
   83.71500        6.7167529E-18
   83.85750        6.7097578E-18
   84.00000        6.7020804E-18
   84.14250        6.6951577E-18
   84.28500        6.6903009E-18
   84.42750        6.6884162E-18
   84.57000        6.6898265E-18
   84.71250        6.6942222E-18
   84.85500        6.7007465E-18
   84.99750        6.7081821E-18
   85.14000        6.7151891E-18
   85.28250        6.7205554E-18
   85.42500        6.7234125E-18
   85.56750        6.7233898E-18
   85.71000        6.7206878E-18
   85.85250        6.7160523E-18
   85.99500        6.7106438E-18
   86.13750        6.7058151E-18
   86.28000        6.7028335E-18
   86.42250        6.7026077E-18
   86.56500        6.7054809E-18
   86.70750        6.7111504E-18
   86.85000        6.7187319E-18
   86.99250        6.7269587E-18
   87.13500        6.7344550E-18
   87.27750        6.7400236E-18
   87.42000        6.7428773E-18
   87.56250        6.7427752E-18
   87.70500        6.7400451E-18
   87.84750        6.7355096E-18
   87.99000        6.7303269E-18
   88.13250        6.7257841E-18
   88.27500        6.7230630E-18
   88.41750        6.7230217E-18
   88.56000        6.7260173E-18
   88.70250        6.7318270E-18
   88.84500        6.7396778E-18
   88.98750        6.7484012E-18
   89.13000        6.7566888E-18
   89.27250        6.7633802E-18
   89.41500        6.7677234E-18
   89.55750        6.7695332E-18
   89.70000        6.7692181E-18
   89.84250        6.7676696E-18
   89.98500        6.7660549E-18
   90.12750        6.7655632E-18
   90.27000        6.7671613E-18
   90.41250        6.7714064E-18
   90.55500        6.7783324E-18
   90.69750        6.7874322E-18
   90.84000        6.7977331E-18
   90.98250        6.8079566E-18
   91.12500        6.8167495E-18
   91.26750        6.8229476E-18
   91.41000        6.8258208E-18
   91.55250        6.8252426E-18
   91.69500        6.8217366E-18
   91.83750        6.8163756E-18
   91.98000        6.8105589E-18
   92.12250        6.8057133E-18
   92.26500        6.8029960E-18
   92.40750        6.8030680E-18
   92.55000        6.8059850E-18
   92.69250        6.8112173E-18
   92.83500        6.8177802E-18
   92.97750        6.8244427E-18
   93.12000        6.8299716E-18
   93.26250        6.8333680E-18
   93.40500        6.8340632E-18
   93.54750        6.8320420E-18
   93.69000        6.8278672E-18
   93.83250        6.8225849E-18
   93.97500        6.8175271E-18
   94.11750        6.8140306E-18
   94.26000        6.8131426E-18
   94.40250        6.8153789E-18
   94.54500        6.8205967E-18
   94.68750        6.8280244E-18
   94.83000        6.8364186E-18
   94.97250        6.8443352E-18
   95.11500        6.8504178E-18
   95.25750        6.8536558E-18
   95.40000        6.8535607E-18
   95.54250        6.8502346E-18
   95.68500        6.8443323E-18
   95.82750        6.8369331E-18
   95.97000        6.8293409E-18
   96.11250        6.8228454E-18
   96.25500        6.8184812E-18
   96.39750        6.8168173E-18
   96.54000        6.8178393E-18
   96.68250        6.8209483E-18
   96.82500        6.8250933E-18
   96.96750        6.8290083E-18
   97.11000        6.8315052E-18
   97.25250        6.8317459E-18
   97.39500        6.8294248E-18
   97.53750        6.8248253E-18
   97.68000        6.8187410E-18
   97.82250        6.8122906E-18
   97.96500        6.8066893E-18
   98.10750        6.8030059E-18
   98.25000        6.8019657E-18
   98.39250        6.8038228E-18
   98.53500        6.8083052E-18
   98.67750        6.8146555E-18
   98.82000        6.8217515E-18
   98.96250        6.8283090E-18
   99.10500        6.8331236E-18
   99.24750        6.8353239E-18
   99.39000        6.8345571E-18