  -30.00000        9.7844703E-19
  -29.85750        9.8019982E-19
  -29.71500        9.8339822E-19
  -29.57250        9.8751437E-19
  -29.43000        9.9190650E-19
  -29.28750        9.9594883E-19
  -29.14500        9.9914960E-19
  -29.00250        1.0012399E-18
  -28.86000        1.0022160E-18
  -28.71750        1.0023277E-18
  -28.57500        1.0020214E-18
  -28.43250        1.0018471E-18
  -28.29000        1.0023451E-18
  -28.14750        1.0039344E-18
  -28.00500        1.0068204E-18
  -27.86250        1.0109460E-18
  -27.72000        1.0159928E-18
  -27.57750        1.0214395E-18
  -27.43500        1.0266651E-18
  -27.29250        1.0310784E-18
  -27.15000        1.0342393E-18
  -27.00750        1.0359524E-18
  -26.86500        1.0363035E-18
  -26.72250        1.0356391E-18
  -26.58000        1.0344933E-18
  -26.43750        1.0334790E-18
  -26.29500        1.0331682E-18
  -26.15250        1.0339820E-18
  -26.01000        1.0361154E-18
  -25.86750        1.0395017E-18
  -25.72500        1.0438265E-18
  -25.58250        1.0485893E-18
  -25.44000        1.0532001E-18
  -25.29750        1.0570975E-18
  -25.15500        1.0598662E-18
  -25.01250        1.0613211E-18
  -24.87000        1.0615515E-18
  -24.72750        1.0609012E-18
  -24.58500        1.0598952E-18
  -24.44250        1.0591291E-18
  -24.30000        1.0591394E-18
  -24.15750        1.0602956E-18
  -24.01500        1.0627258E-18
  -23.87250        1.0662963E-18
  -23.73000        1.0706433E-18
  -23.58750        1.0752497E-18
  -23.44500        1.0795469E-18
  -23.30250        1.0830276E-18
  -23.16000        1.0853444E-18
  -23.01750        1.0863797E-18
  -22.87500        1.0862713E-18
  -22.73250        1.0853890E-18
  -22.59000        1.0842619E-18
  -22.44750        1.0834712E-18
  -22.30500        1.0835262E-18
  -22.16250        1.0847563E-18
  -22.02000        1.0872397E-18
  -21.87750        1.0907854E-18
  -21.73500        1.0949780E-18
  -21.59250        1.0992673E-18
  -21.45000        1.1030868E-18
  -21.30750        1.1059717E-18
  -21.16500        1.1076526E-18
  -21.02250        1.1081059E-18
  -20.88000        1.1075608E-18
  -20.73750        1.1064507E-18
  -20.59500        1.1053302E-18
  -20.45250        1.1047686E-18
  -20.31000        1.1052349E-18
  -20.16750        1.1070011E-18
  -20.02500        1.1100816E-18
  -19.88250        1.1142244E-18
  -19.74000        1.1189573E-18
  -19.59750        1.1236839E-18
  -19.45500        1.1278122E-18
  -19.31250        1.1308790E-18
  -19.17000        1.1326536E-18
  -19.02750        1.1331851E-18
  -18.88500        1.1327938E-18
  -18.74250        1.1320034E-18
  -18.60000        1.1314326E-18
  -18.45750        1.1316723E-18
  -18.31500        1.1331677E-18
  -18.17250        1.1361292E-18
  -18.03000        1.1404862E-18
  -17.88750        1.1458928E-18
  -17.74500        1.1517837E-18
  -17.60250        1.1574727E-18
  -17.46000        1.1622804E-18
  -17.31750        1.1656636E-18
  -17.17500        1.1673262E-18
  -17.03250        1.1672784E-18
  -16.89000        1.1658382E-18
  -16.74750        1.1635693E-18
  -16.60500        1.1611653E-18
  -16.46250        1.1593143E-18
  -16.32000        1.1585644E-18
  -16.17750        1.1592231E-18
  -16.03500        1.1613115E-18
  -15.89250        1.1645692E-18
  -15.75000        1.1685171E-18
  -15.60750        1.1725545E-18
  -15.46500        1.1760761E-18
  -15.32250        1.1785891E-18
  -15.18000        1.1798054E-18
  -15.03750        1.1796972E-18
  -14.89500        1.1785015E-18
  -14.75250        1.1766704E-18
  -14.61000        1.1747761E-18
  -14.46750        1.1733863E-18
  -14.32500        1.1729420E-18
  -14.18250        1.1736587E-18
  -14.04000        1.1754804E-18
  -13.89750        1.1780916E-18
  -13.75500        1.1809875E-18
  -13.61250        1.1835826E-18
  -13.47000        1.1853362E-18
  -13.32750        1.1858617E-18
  -13.18500        1.1850089E-18
  -13.04250        1.1828973E-18
  -12.90000        1.1798982E-18
  -12.75750        1.1765715E-18
  -12.61500        1.1735660E-18
  -12.47250        1.1715025E-18
  -12.33000        1.1708558E-18
  -12.18750        1.1718623E-18
  -12.04500        1.1744727E-18
  -11.90250        1.1783590E-18
  -11.76000        1.1829812E-18
  -11.61750        1.1876940E-18
  -11.47500        1.1918799E-18
  -11.33250        1.1950674E-18
  -11.19000        1.1970211E-18
  -11.04750        1.1977730E-18
  -10.90500        1.1976055E-18
  -10.76250        1.1969774E-18
  -10.62000        1.1964273E-18
  -10.47750        1.1964582E-18
  -10.33500        1.1974375E-18
  -10.19250        1.1995202E-18
  -10.05000        1.2026160E-18
  -9.907500        1.2064001E-18
  -9.765000        1.2103722E-18
  -9.622500        1.2139544E-18
  -9.480000        1.2166047E-18
  -9.337500        1.2179305E-18
  -9.195000        1.2177695E-18
  -9.052500        1.2162255E-18
  -8.910000        1.2136453E-18
  -8.767500        1.2105451E-18
  -8.625000        1.2075022E-18
  -8.482500        1.2050393E-18
  -8.340000        1.2035265E-18
  -8.197500        1.2031185E-18
  -8.055000        1.2037380E-18
  -7.912500        1.2051034E-18
  -7.770000        1.2067944E-18
  -7.627500        1.2083421E-18
  -7.485000        1.2093272E-18
  -7.342500        1.2094690E-18
  -7.200000        1.2086880E-18
  -7.057500        1.2071304E-18
  -6.915000        1.2051427E-18
  -6.772500        1.2032043E-18
  -6.630000        1.2018257E-18
  -6.487500        1.2014366E-18
  -6.345000        1.2022888E-18
  -6.202500        1.2043997E-18
  -6.060000        1.2075467E-18
  -5.917500        1.2113175E-18
  -5.775000        1.2151935E-18
  -5.632500        1.2186589E-18
  -5.490000        1.2213028E-18
  -5.347500        1.2228941E-18
  -5.205000        1.2234257E-18
  -5.062500        1.2231083E-18
  -4.920000        1.2223309E-18
  -4.777500        1.2215803E-18
  -4.635000        1.2213447E-18
  -4.492500        1.2220089E-18
  -4.350000        1.2237679E-18
  -4.207500        1.2265747E-18
  -4.065000        1.2301357E-18
  -3.922500        1.2339617E-18
  -3.780000        1.2374635E-18
  -3.637500        1.2400740E-18
  -3.495000        1.2413641E-18
  -3.352500        1.2411362E-18
  -3.210000        1.2394628E-18
  -3.067500        1.2366737E-18
  -2.925000        1.2332934E-18
  -2.782500        1.2299420E-18
  -2.640000        1.2272198E-18
  -2.497500        1.2256030E-18
  -2.355000        1.2253579E-18
  -2.212500        1.2265010E-18
  -2.070000        1.2287956E-18
  -1.927500        1.2318040E-18
  -1.785000        1.2349760E-18
  -1.642500        1.2377618E-18
  -1.500000        1.2397289E-18
  -1.357500        1.2406547E-18
  -1.215000        1.2405736E-18
  -1.072500        1.2397678E-18
 -0.9300000        1.2387037E-18
 -0.7875000        1.2379259E-18
 -0.6450000        1.2379360E-18
 -0.5025000        1.2390833E-18
 -0.3600000        1.2414892E-18
 -0.2175000        1.2450177E-18
 -7.5000003E-02    1.2492994E-18
  6.7500003E-02    1.2537998E-18
  0.2100000        1.2579201E-18
  0.3525000        1.2611085E-18
  0.4950000        1.2629706E-18
  0.6375000        1.2633493E-18
  0.7800000        1.2623627E-18
  0.9225000        1.2603908E-18
   1.065000        1.2580020E-18
   1.207500        1.2558442E-18
   1.350000        1.2545096E-18
   1.492500        1.2544154E-18
   1.635000        1.2557150E-18
   1.777500        1.2582685E-18
   1.920000        1.2616740E-18
   2.062500        1.2653513E-18
   2.205000        1.2686593E-18
   2.347500        1.2710194E-18
   2.490000        1.2720248E-18
   2.632500        1.2715196E-18
   2.775000        1.2696248E-18
   2.917500        1.2667200E-18
   3.060000        1.2633761E-18
   3.202500        1.2602535E-18
   3.345000        1.2579796E-18
   3.487500        1.2570279E-18
   3.630000        1.2576290E-18
   3.772500        1.2597259E-18
   3.915000        1.2629893E-18
   4.057500        1.2668918E-18
   4.200000        1.2708205E-18
   4.342500        1.2742023E-18
   4.485000        1.2766154E-18
   4.627500        1.2778629E-18
   4.770000        1.2779943E-18
   4.912500        1.2772757E-18
   5.055000        1.2761217E-18
   5.197500        1.2750014E-18
   5.340000        1.2743384E-18
   5.482500        1.2744264E-18
   5.625000        1.2753644E-18
   5.767500        1.2770366E-18
   5.910000        1.2791306E-18
   6.052500        1.2811990E-18
   6.195000        1.2827567E-18
   6.337500        1.2833898E-18
   6.480000        1.2828555E-18
   6.622500        1.2811455E-18
   6.765000        1.2785031E-18
   6.907500        1.2753790E-18
   7.050000        1.2723454E-18
   7.192500        1.2699806E-18
   7.335000        1.2687585E-18
   7.477500        1.2689600E-18
   7.620000        1.2706248E-18
   7.762500        1.2735506E-18
   7.905000        1.2773363E-18
   8.047500        1.2814584E-18
   8.190000        1.2853683E-18
   8.332500        1.2885923E-18
   8.475000        1.2908236E-18
   8.617500        1.2919782E-18
   8.760000        1.2922124E-18
   8.902500        1.2918865E-18
   9.045000        1.2914867E-18
   9.187500        1.2915147E-18
   9.330000        1.2923750E-18
   9.472500        1.2942785E-18
   9.615000        1.2971955E-18
   9.757500        1.3008542E-18
   9.900000        1.3047959E-18
   10.04250        1.3084667E-18
   10.18500        1.3113251E-18
   10.32750        1.3129454E-18
   10.47000        1.3130974E-18
   10.61250        1.3117910E-18
   10.75500        1.3092777E-18
   10.89750        1.3060091E-18
   11.04000        1.3025573E-18
   11.18250        1.2995098E-18
   11.32500        1.2973620E-18
   11.46750        1.2964205E-18
   11.61000        1.2967496E-18
   11.75250        1.2981640E-18
   11.89500        1.3002767E-18
   12.03750        1.3025914E-18
   12.18000        1.3046119E-18
   12.32250        1.3059491E-18
   12.46500        1.3064015E-18
   12.60750        1.3059877E-18
   12.75000        1.3049394E-18
   12.89250        1.3036486E-18
   13.03500        1.3025858E-18
   13.17750        1.3022058E-18
   13.32000        1.3028574E-18
   13.46250        1.3047069E-18
   13.60500        1.3076966E-18
   13.74750        1.3115446E-18
   13.89000        1.3157912E-18
   14.03250        1.3198852E-18
   14.17500        1.3232906E-18
   14.31750        1.3256026E-18
   14.46000        1.3266266E-18
   14.60250        1.3264203E-18
   14.74500        1.3252758E-18
   14.88750        1.3236541E-18
   15.03000        1.3220859E-18
   15.17250        1.3210635E-18
   15.31500        1.3209451E-18
   15.45750        1.3218925E-18
   15.60000        1.3238439E-18
   15.74250        1.3265278E-18
   15.88500        1.3295185E-18
   16.02750        1.3323134E-18
   16.17000        1.3344337E-18
   16.31250        1.3355204E-18
   16.45500        1.3354157E-18
   16.59750        1.3342046E-18
   16.74000        1.3322112E-18
   16.88250        1.3299402E-18
   17.02500        1.3279745E-18
   17.16750        1.3268562E-18
   17.31000        1.3269736E-18
   17.45250        1.3284796E-18
   17.59500        1.3312638E-18
   17.73750        1.3349768E-18
   17.88000        1.3390992E-18
   18.02250        1.3430385E-18
   18.16500        1.3462359E-18
   18.30750        1.3482620E-18
   18.45000        1.3488885E-18
   18.59250        1.3481259E-18
   18.73500        1.3462203E-18
   18.87750        1.3436062E-18
   19.02000        1.3408252E-18
   19.16250        1.3384223E-18
   19.30500        1.3368378E-18
   19.44750        1.3363201E-18
   19.59000        1.3368812E-18
   19.73250        1.3383037E-18
   19.87500        1.3401975E-18
   20.01750        1.3420935E-18
   20.16000        1.3435495E-18
   20.30250        1.3442431E-18
   20.44500        1.3440375E-18
   20.58750        1.3430021E-18
   20.73000        1.3413927E-18
   20.87250        1.3395974E-18
   21.01500        1.3380585E-18
   21.15750        1.3371833E-18
   21.30000        1.3372621E-18
   21.44250        1.3384082E-18
   21.58500        1.3405307E-18
   21.72750        1.3433477E-18
   21.87000        1.3464473E-18
   22.01250        1.3493734E-18
   22.15500        1.3517299E-18
   22.29750        1.3532676E-18
   22.44000        1.3539416E-18
   22.58250        1.3539203E-18
   22.72500        1.3535436E-18
   22.86750        1.3532466E-18
   23.01000        1.3534660E-18
   23.15250        1.3545426E-18
   23.29500        1.3566514E-18
   23.43750        1.3597592E-18
   23.58000        1.3636218E-18
   23.72250        1.3678229E-18
   23.86500        1.3718423E-18
   24.00750        1.3751519E-18
   24.15000        1.3773150E-18
   24.29250        1.3780790E-18
   24.43500        1.3774286E-18
   24.57750        1.3755973E-18
   24.72000        1.3730218E-18
   24.86250        1.3702533E-18
   25.00500        1.3678445E-18
   25.14750        1.3662377E-18
   25.29000        1.3656798E-18
   25.43250        1.3661827E-18
   25.57500        1.3675349E-18
   25.71750        1.3693569E-18
   25.86000        1.3711851E-18
   26.00250        1.3725687E-18
   26.14500        1.3731606E-18
   26.28750        1.3727895E-18
   26.43000        1.3715012E-18
   26.57250        1.3695567E-18
   26.71500        1.3673923E-18
   26.85750        1.3655391E-18
   27.00000        1.3645167E-18
   27.14250        1.3647235E-18
   27.28500        1.3663453E-18
   27.42750        1.3693116E-18
   27.57000        1.3733032E-18
   27.71250        1.3778167E-18
   27.85500        1.3822652E-18
   27.99750        1.3860986E-18
   28.14000        1.3889050E-18
   28.28250        1.3904796E-18
   28.42500        1.3908536E-18
   28.56750        1.3902712E-18
   28.71000        1.3891329E-18
   28.85250        1.3879107E-18
   28.99500        1.3870555E-18
   29.13750        1.3869049E-18
   29.28000        1.3876126E-18
   29.42250        1.3891142E-18
   29.56500        1.3911317E-18
   29.70750        1.3932327E-18
   29.85000        1.3949202E-18
   29.99250        1.3957475E-18
   30.13500        1.3954252E-18
   30.27750        1.3938917E-18
   30.42000        1.3913415E-18
   30.56250        1.3881900E-18
   30.70500        1.3849953E-18
   30.84750        1.3823487E-18
   30.99000        1.3807631E-18
   31.13250        1.3805763E-18
   31.27500        1.3818895E-18
   31.41750        1.3845475E-18
   31.56000        1.3881666E-18
   31.70250        1.3921986E-18
   31.84500        1.3960300E-18
   31.98750        1.3990937E-18
   32.13000        1.4009770E-18
   32.27250        1.4015037E-18
   32.41500        1.4007715E-18
   32.55750        1.3991337E-18
   32.70000        1.3971276E-18
   32.84250        1.3953683E-18
   32.98500        1.3944220E-18
   33.12750        1.3946998E-18
   33.27000        1.3963799E-18
   33.41250        1.3993805E-18
   33.55500        1.4033817E-18
   33.69750        1.4078888E-18
   33.84000        1.4123231E-18
   33.98250        1.4161251E-18
   34.12500        1.4188504E-18
   34.26750        1.4202471E-18
   34.41000        1.4202973E-18
   34.55250        1.4192151E-18
   34.69500        1.4173992E-18
   34.83750        1.4153477E-18
   34.98000        1.4135519E-18
   35.12250        1.4123926E-18
   35.26500        1.4120646E-18
   35.40750        1.4125423E-18
   35.55000        1.4135984E-18
   35.69250        1.4148661E-18
   35.83500        1.4159255E-18
   35.97750        1.4164018E-18
   36.12000        1.4160434E-18
   36.26250        1.4147756E-18
   36.40500        1.4127216E-18
   36.54750        1.4101856E-18
   36.69000        1.4076043E-18
   36.83250        1.4054747E-18
   36.97500        1.4042666E-18
   37.11750        1.4043312E-18
   37.26000        1.4058293E-18
   37.40250        1.4086920E-18
   37.54500        1.4126284E-18
   37.68750        1.4171786E-18
   37.83000        1.4218045E-18
   37.97250        1.4259951E-18
   38.11500        1.4293626E-18
   38.25750        1.4317079E-18
   38.40000        1.4330395E-18
   38.54250        1.4335522E-18
   38.68500        1.4335668E-18
   38.82750        1.4334562E-18
   38.97000        1.4335642E-18
   39.11250        1.4341369E-18
   39.25500        1.4352760E-18
   39.39750        1.4369168E-18
   39.54000        1.4388422E-18
   39.68250        1.4407213E-18
   39.82500        1.4421830E-18
   39.96750        1.4428999E-18
   40.11000        1.4426696E-18
   40.25250        1.4414742E-18
   40.39500        1.4395012E-18
   40.53750        1.4371142E-18
   40.68000        1.4347840E-18
   40.82250        1.4329914E-18
   40.96500        1.4321293E-18
   41.10750        1.4324254E-18
   41.25000        1.4339016E-18
   41.39250        1.4363715E-18
   41.53500        1.4394827E-18
   41.67750        1.4427812E-18
   41.82000        1.4457934E-18
   41.96250        1.4481093E-18
   42.10500        1.4494521E-18
   42.24750        1.4497279E-18
   42.39000        1.4490364E-18
   42.53250        1.4476503E-18
   42.67500        1.4459529E-18
   42.81750        1.4443526E-18
   42.96000        1.4431926E-18
   43.10250        1.4426734E-18
   43.24500        1.4428138E-18
   43.38750        1.4434522E-18
   43.53000        1.4442950E-18
   43.67250        1.4449921E-18
   43.81500        1.4452225E-18
   43.95750        1.4447738E-18
   44.10000        1.4435889E-18
   44.24250        1.4417884E-18
   44.38500        1.4396513E-18
   44.52750        1.4375669E-18
   44.67000        1.4359663E-18
   44.81250        1.4352399E-18
   44.95500        1.4356556E-18
   45.09750        1.4373000E-18
   45.24000        1.4400484E-18
   45.38250        1.4435803E-18
   45.52500        1.4474349E-18
   45.66750        1.4511053E-18
   45.81000        1.4541387E-18
   45.95250        1.4562271E-18
   46.09500        1.4572635E-18
   46.23750        1.4573543E-18
   46.38000        1.4567882E-18
   46.52250        1.4559680E-18
   46.66500        1.4553272E-18
   46.80750        1.4552480E-18
   46.95000        1.4559908E-18
   47.09250        1.4576481E-18
   47.23500        1.4601289E-18
   47.37750        1.4631732E-18
   47.52000        1.4663981E-18
   47.66250        1.4693726E-18
   47.80500        1.4717058E-18
   47.94750        1.4731297E-18
   48.09000        1.4735609E-18
   48.23250        1.4731192E-18
   48.37500        1.4721027E-18
   48.51750        1.4709131E-18
   48.66000        1.4699659E-18
   48.80250        1.4695943E-18
   48.94500        1.4699802E-18
   49.08750        1.4711187E-18
   49.23000        1.4728263E-18
   49.37250        1.4747815E-18
   49.51500        1.4765908E-18
   49.65750        1.4778599E-18
   49.80000        1.4782686E-18
   49.94250        1.4776331E-18
   50.08500        1.4759464E-18
   50.22750        1.4733953E-18
   50.37000        1.4703359E-18
   50.51250        1.4672382E-18
   50.65500        1.4645992E-18
   50.79750        1.4628432E-18
   50.94000        1.4622346E-18
   51.08250        1.4628251E-18
   51.22500        1.4644420E-18
   51.36750        1.4667325E-18
   51.51000        1.4692388E-18
   51.65250        1.4714957E-18
   51.79500        1.4731173E-18
   51.93750        1.4738648E-18
   52.08000        1.4736868E-18
   52.22250        1.4727176E-18
   52.36500        1.4712533E-18
   52.50750        1.4696954E-18
   52.65000        1.4684783E-18
   52.79250        1.4679880E-18
   52.93500        1.4684833E-18
   53.07750        1.4700381E-18
   53.22000        1.4725200E-18
   53.36250        1.4756100E-18
   53.50500        1.4788682E-18
   53.64750        1.4818230E-18
   53.79000        1.4840724E-18
   53.93250        1.4853636E-18
   54.07500        1.4856418E-18
   54.21750        1.4850549E-18
   54.36000        1.4839170E-18
   54.50250        1.4826435E-18
   54.64500        1.4816739E-18
   54.78750        1.4813871E-18
   54.93000        1.4820346E-18
   55.07250        1.4836877E-18
   55.21500        1.4862208E-18
   55.35750        1.4893250E-18
   55.50000        1.4925637E-18
   55.64250        1.4954552E-18
   55.78500        1.4975710E-18
   55.92750        1.4986262E-18
   56.07000        1.4985420E-18
   56.21250        1.4974592E-18
   56.35500        1.4957052E-18
   56.49750        1.4937208E-18
   56.64000        1.4919674E-18
   56.78250        1.4908350E-18
   56.92500        1.4905707E-18
   57.06750        1.4912402E-18
   57.21000        1.4927204E-18
   57.35250        1.4947248E-18
   57.49500        1.4968567E-18
   57.63750        1.4986848E-18
   57.78000        1.4998248E-18
   57.92250        1.5000242E-18
   58.06500        1.4992249E-18
   58.20750        1.4975882E-18
   58.35000        1.4954699E-18
   58.49250        1.4933535E-18
   58.63500        1.4917445E-18
   58.77750        1.4910614E-18
   58.92000        1.4915455E-18
   59.06250        1.4932130E-18
   59.20500        1.4958570E-18
   59.34750        1.4990976E-18
   59.49000        1.5024610E-18
   59.63250        1.5054710E-18
   59.77500        1.5077330E-18
   59.91750        1.5089992E-18
   60.06000        1.5092134E-18
   60.20250        1.5085208E-18
   60.34500        1.5072443E-18
   60.48750        1.5058299E-18
   60.63000        1.5047606E-18
   60.77250        1.5044543E-18
   60.91500        1.5051703E-18
   61.05750        1.5069437E-18
   61.20000        1.5095699E-18
   61.34250        1.5126474E-18
   61.48500        1.5156635E-18
   61.62750        1.5181066E-18
   61.77000        1.5195746E-18
   61.91250        1.5198510E-18
   62.05500        1.5189418E-18
   62.19750        1.5170660E-18
   62.34000        1.5146089E-18
   62.48250        1.5120519E-18
   62.62500        1.5098861E-18
   62.76750        1.5085305E-18
   62.91000        1.5082540E-18
   63.05250        1.5091252E-18
   63.19500        1.5109937E-18
   63.33750        1.5135128E-18
   63.48000        1.5162064E-18
   63.62250        1.5185674E-18
   63.76500        1.5201643E-18
   63.90750        1.5207346E-18
   64.05000        1.5202368E-18
   64.19250        1.5188518E-18
   64.33500        1.5169389E-18
   64.47750        1.5149571E-18
   64.62000        1.5133729E-18
   64.76250        1.5125753E-18
   64.90500        1.5128127E-18
   65.04750        1.5141545E-18
   65.19000        1.5164851E-18
   65.33250        1.5195246E-18
   65.47500        1.5228795E-18
   65.61750        1.5261119E-18
   65.76000        1.5288248E-18
   65.90250        1.5307393E-18
   66.04500        1.5317497E-18
   66.18750        1.5319403E-18
   66.33000        1.5315552E-18
   66.47250        1.5309345E-18
   66.61500        1.5304260E-18
   66.75750        1.5303054E-18
   66.90000        1.5307155E-18
   67.04250        1.5316463E-18
   67.18500        1.5329448E-18
   67.32750        1.5343530E-18
   67.47000        1.5355645E-18
   67.61250        1.5362808E-18
   67.75500        1.5362692E-18
   67.89750        1.5354137E-18
   68.04000        1.5337468E-18
   68.18250        1.5314640E-18
   68.32500        1.5288979E-18
   68.46750        1.5264670E-18
   68.61000        1.5245917E-18
   68.75250        1.5236057E-18
   68.89500        1.5236813E-18
   69.03750        1.5247922E-18
   69.18000        1.5267209E-18
   69.32250        1.5291112E-18
   69.46500        1.5315461E-18
   69.60750        1.5336314E-18
   69.75000        1.5350673E-18
   69.89250        1.5356906E-18
   70.03500        1.5354956E-18
   70.17750        1.5346259E-18
   70.32000        1.5333497E-18
   70.46250        1.5320152E-18
   70.60500        1.5309927E-18
   70.74750        1.5306031E-18
   70.89000        1.5310510E-18
   71.03250        1.5323729E-18
   71.17500        1.5344196E-18
   71.31750        1.5368827E-18
   71.46000        1.5393623E-18
   71.60250        1.5414590E-18
   71.74500        1.5428613E-18
   71.88750        1.5434123E-18
   72.03000        1.5431343E-18
   72.17250        1.5422125E-18
   72.31500        1.5409448E-18
   72.45750        1.5396822E-18
   72.60000        1.5387600E-18
   72.74250        1.5384443E-18
   72.88500        1.5388889E-18
   73.02750        1.5401119E-18
   73.17000        1.5419882E-18
   73.31250        1.5442708E-18
   73.45500        1.5466356E-18
   73.59750        1.5487485E-18
   73.74000        1.5503417E-18
   73.88250        1.5512779E-18
   74.02500        1.5515858E-18
   74.16750        1.5514501E-18
   74.31000        1.5511614E-18
   74.45250        1.5510403E-18
   74.59500        1.5513548E-18
   74.73750        1.5522547E-18
   74.88000        1.5537409E-18
   75.02250        1.5556639E-18
   75.16500        1.5577572E-18
   75.30750        1.5596861E-18
   75.45000        1.5611074E-18
   75.59250        1.5617332E-18
   75.73500        1.5613912E-18
   75.87750        1.5600678E-18
   76.02000        1.5579296E-18
   76.16250        1.5553098E-18
   76.30500        1.5526522E-18
   76.44750        1.5504280E-18
   76.59000        1.5490350E-18
   76.73250        1.5487099E-18
   76.87500        1.5494791E-18
   77.01750        1.5511523E-18
   77.16000        1.5533711E-18
   77.30250        1.5556861E-18
   77.44500        1.5576513E-18
   77.58750        1.5589061E-18
   77.73000        1.5592383E-18
   77.87250        1.5586190E-18
   78.01500        1.5572083E-18
   78.15750        1.5553318E-18
   78.30000        1.5534295E-18
   78.44250        1.5519830E-18
   78.58500        1.5514219E-18
   78.72750        1.5520337E-18
   78.87000        1.5538980E-18
   79.01250        1.5568593E-18
   79.15500        1.5605570E-18
   79.29750        1.5645011E-18
   79.44000        1.5681811E-18
   79.58250        1.5711769E-18
   79.72500        1.5732377E-18
   79.86750        1.5743206E-18
   80.01000        1.5745769E-18
   80.15250        1.5743040E-18
   80.29500        1.5738741E-18
   80.43750        1.5736551E-18
   80.58000        1.5739388E-18
   80.72250        1.5748825E-18
   80.86500        1.5764730E-18
   81.00750        1.5785109E-18
   81.15000        1.5806394E-18
   81.29250        1.5824042E-18
   81.43500        1.5833459E-18
   81.57750        1.5831049E-18
   81.72000        1.5815145E-18
   81.86250        1.5786521E-18
   82.00500        1.5748348E-18
   82.14750        1.5705591E-18
   82.29000        1.5664006E-18
   82.43250        1.5629003E-18
   82.57500        1.5604667E-18
   82.71750        1.5593118E-18
   82.86000        1.5594281E-18
   83.00250        1.5606056E-18
   83.14500        1.5624793E-18
   83.28750        1.5645973E-18
   83.43000        1.5665019E-18
   83.57250        1.5678121E-18
   83.71500        1.5682970E-18
   83.85750        1.5679251E-18
   84.00000        1.5668751E-18
   84.14250        1.5654965E-18
   84.28500        1.5642340E-18
   84.42750        1.5635180E-18
   84.57000        1.5636665E-18
   84.71250        1.5648091E-18
   84.85500        1.5668595E-18
   84.99750        1.5695399E-18
   85.14000        1.5724429E-18
   85.28250        1.5751152E-18
   85.42500        1.5771440E-18
   85.56750        1.5782272E-18
   85.71000        1.5782254E-18
   85.85250        1.5771854E-18
   85.99500        1.5753356E-18
   86.13750        1.5730522E-18
   86.28000        1.5707948E-18
   86.42250        1.5690216E-18
   86.56500        1.5680992E-18
   86.70750        1.5682250E-18
   86.85000        1.5693867E-18
   86.99250        1.5713715E-18
   87.13500        1.5738227E-18
   87.27750        1.5763241E-18
   87.42000        1.5784984E-18
   87.56250        1.5800815E-18
   87.70500        1.5809660E-18
   87.84750        1.5812082E-18
   87.99000        1.5810050E-18
   88.13250        1.5806459E-18
   88.27500        1.5804590E-18
   88.41750        1.5807505E-18
   88.56000        1.5817458E-18
   88.70250        1.5835365E-18
   88.84500        1.5860506E-18
   88.98750        1.5890493E-18
   89.13000        1.5921668E-18
   89.27250        1.5949837E-18
   89.41500        1.5971242E-18
   89.55750        1.5983462E-18
   89.70000        1.5986050E-18
   89.84250        1.5980647E-18
   89.98500        1.5970603E-18
   90.12750        1.5960217E-18
   90.27000        1.5953811E-18
   90.41250        1.5954875E-18
   90.55500        1.5965445E-18
   90.69750        1.5985785E-18
   90.84000        1.6014346E-18
   90.98250        1.6047982E-18
   91.12500        1.6082376E-18
   91.26750        1.6112698E-18
   91.41000        1.6134436E-18
   91.55250        1.6144247E-18
   91.69500        1.6140726E-18
   91.83750        1.6124787E-18
   91.98000        1.6099591E-18
   92.12250        1.6069933E-18
   92.26500        1.6041238E-18
   92.40750        1.6018443E-18
   92.55000        1.6004972E-18
   92.69250        1.6002209E-18
   92.83500        1.6009357E-18
   92.97750        1.6023795E-18
   93.12000        1.6041764E-18
   93.26250        1.6059121E-18
   93.40500        1.6072162E-18
   93.54750        1.6078293E-18
   93.69000        1.6076517E-18
   93.83250        1.6067662E-18
   93.97500        1.6054298E-18
   94.11750        1.6040276E-18
   94.26000        1.6029928E-18
   94.40250        1.6027122E-18
   94.54500        1.6034295E-18
   94.68750        1.6051867E-18
   94.83000        1.6078035E-18
   94.97250        1.6109174E-18
   95.11500        1.6140630E-18
   95.25750        1.6167718E-18
   95.40000        1.6186684E-18
   95.54250        1.6195424E-18
   95.68500        1.6193831E-18
   95.82750        1.6183720E-18
   95.97000        1.6168505E-18
   96.11250        1.6152553E-18
   96.25500        1.6140370E-18
   96.39750        1.6135743E-18
   96.54000        1.6140939E-18
   96.68250        1.6156125E-18
   96.82500        1.6179242E-18
   96.96750        1.6206351E-18
   97.11000        1.6232440E-18
   97.25250        1.6252524E-18
   97.39500        1.6262761E-18
   97.53750        1.6261259E-18
   97.68000        1.6248468E-18
   97.82250        1.6226932E-18
   97.96500        1.6200694E-18
   98.10750        1.6174416E-18
   98.25000        1.6152459E-18
   98.39250        1.6138140E-18
   98.53500        1.6133146E-18
   98.67750        1.6137273E-18
   98.82000        1.6148410E-18
   98.96250        1.6162861E-18
   99.10500        1.6175982E-18
   99.24750        1.6183089E-18
   99.39000        1.6180447E-18