  -30.0000000         9.84044911E-18
  -29.8575001         9.85751136E-18
  -29.7150002         9.88334669E-18
  -29.5725002         9.90642503E-18
  -29.4300003         9.91863835E-18
  -29.2875004         9.91982867E-18
  -29.1450005         9.91749519E-18
  -29.0025005         9.92190241E-18
  -28.8600006         9.93955858E-18
  -28.7175007         9.96902606E-18
  -28.5750008         1.00015789E-17
  -28.4325008         1.00263141E-17
  -28.2900009         1.00366365E-17
  -28.1474991         1.00342054E-17
  -28.0049992         1.00279643E-17
  -27.8624992         1.00288411E-17
  -27.7199993         1.00432829E-17
  -27.5774994         1.00695062E-17
  -27.4349995         1.00986866E-17
  -27.2924995         1.01203372E-17
  -27.1499996         1.01286306E-17
  -27.0074997         1.01258504E-17
  -26.8649998         1.01209270E-17
  -26.7224998         1.01239677E-17
  -26.5799999         1.01401110E-17
  -26.4375000         1.01664211E-17
  -26.2950001         1.01936941E-17
  -26.1525002         1.02120468E-17
  -26.0100002         1.02169213E-17
  -25.8675003         1.02118400E-17
  -25.7250004         1.02062739E-17
  -25.5825005         1.02099110E-17
  -25.4400005         1.02267946E-17
  -25.2975006         1.02528971E-17
  -25.1550007         1.02785612E-17
  -25.0125008         1.02943471E-17
  -24.8700008         1.02967319E-17
  -24.7275009         1.02902145E-17
  -24.5849991         1.02845591E-17
  -24.4424992         1.02888728E-17
  -24.2999992         1.03060947E-17
  -24.1574993         1.03312484E-17
  -24.0149994         1.03545203E-17
  -23.8724995         1.03672713E-17
  -23.7299995         1.03673392E-17
  -23.5874996         1.03604016E-17
  -23.4449997         1.03565395E-17
  -23.3024998         1.03640999E-17
  -23.1599998         1.03845586E-17
  -23.0174999         1.04115205E-17
  -22.8750000         1.04344864E-17
  -22.7325001         1.04451256E-17
  -22.5900002         1.04422826E-17
  -22.4475002         1.04326699E-17
  -22.3050003         1.04268358E-17
  -22.1625004         1.04328097E-17
  -22.0200005         1.04512823E-17
  -21.8775005         1.04752168E-17
  -21.7350006         1.04941476E-17
  -21.5925007         1.05005607E-17
  -21.4500008         1.04944992E-17
  -21.3075008         1.04835878E-17
  -21.1650009         1.04784386E-17
  -21.0224991         1.04861992E-17
  -20.8799992         1.05061343E-17
  -20.7374992         1.05299298E-17
  -20.5949993         1.05465818E-17
  -20.4524994         1.05489450E-17
  -20.3099995         1.05380271E-17
  -20.1674995         1.05224421E-17
  -20.0249996         1.05133415E-17
  -19.8824997         1.05178505E-17
  -19.7399998         1.05349491E-17
  -19.5974998         1.05562482E-17
  -19.4549999         1.05711846E-17
  -19.3125000         1.05734899E-17
  -19.1700001         1.05650337E-17
  -19.0275002         1.05547105E-17
  -18.8850002         1.05530379E-17
  -18.7425003         1.05657087E-17
  -18.6000004         1.05899848E-17
  -18.4575005         1.06161195E-17
  -18.3150005         1.06329717E-17
  -18.1725006         1.06344631E-17
  -18.0300007         1.06230405E-17
  -17.8875008         1.06080851E-17
  -17.7450008         1.06002468E-17
  -17.6025009         1.06051304E-17
  -17.4599991         1.06200958E-17
  -17.3174992         1.06360877E-17
  -17.1749992         1.06433363E-17
  -17.0324993         1.06374724E-17
  -16.8899994         1.06223490E-17
  -16.7474995         1.06078709E-17
  -16.6049995         1.06041370E-17
  -16.4624996         1.06154280E-17
  -16.3199997         1.06376527E-17
  -16.1774998         1.06607939E-17
  -16.0349998         1.06748560E-17
  -15.8924999         1.06757444E-17
  -15.7500000         1.06675528E-17
  -15.6075001         1.06599080E-17
  -15.4650002         1.06620156E-17
  -15.3225002         1.06770174E-17
  -15.1800003         1.07000693E-17
  -15.0375004         1.07212815E-17
  -14.8950005         1.07317188E-17
  -14.7524996         1.07288088E-17
  -14.6099997         1.07178851E-17
  -14.4674997         1.07089325E-17
  -14.3249998         1.07105199E-17
  -14.1824999         1.07246001E-17
  -14.0400000         1.07453326E-17
  -13.8975000         1.07626405E-17
  -13.7550001         1.07683456E-17
  -13.6125002         1.07611632E-17
  -13.4700003         1.07475263E-17
  -13.3275003         1.07377349E-17
  -13.1850004         1.07397748E-17
  -13.0424995         1.07545250E-17
  -12.8999996         1.07752773E-17
  -12.7574997         1.07918458E-17
  -12.6149998         1.07967683E-17
  -12.4724998         1.07898440E-17
  -12.3299999         1.07782395E-17
  -12.1875000         1.07721010E-17
  -12.0450001         1.07783247E-17
  -11.9025002         1.07962704E-17
  -11.7600002         1.08180492E-17
  -11.6175003         1.08332288E-17
  -11.4750004         1.08351388E-17
  -11.3325005         1.08249595E-17
  -11.1899996         1.08111075E-17
  -11.0474997         1.08042618E-17
  -10.9049997         1.08110107E-17
  -10.7624998         1.08299325E-17
  -10.6199999         1.08524889E-17
  -10.4775000         1.08681896E-17
  -10.3350000         1.08709193E-17
  -10.1925001         1.08626119E-17
  -10.0500002         1.08520480E-17
  -9.90750027         1.08494862E-17
  -9.76500034         1.08603744E-17
  -9.62250042         1.08819365E-17
  -9.47999954         1.09047262E-17
  -9.33749962         1.09182365E-17
  -9.19499969         1.09172033E-17
  -9.05249977         1.09048254E-17
  -8.90999985         1.08909337E-17
  -8.76749992         1.08862064E-17
  -8.62500000         1.08958670E-17
  -8.48250008         1.09166384E-17
  -8.34000015         1.09387737E-17
  -8.19750023         1.09519193E-17
  -8.05500031         1.09513047E-17
  -7.91249990         1.09405224E-17
  -7.76999998         1.09292603E-17
  -7.62750006         1.09273669E-17
  -7.48500013         1.09388176E-17
  -7.34250021         1.09592498E-17
  -7.19999981         1.09785380E-17
  -7.05749989         1.09868685E-17
  -6.91499996         1.09806729E-17
  -6.77250004         1.09648465E-17
  -6.63000011         1.09499233E-17
  -6.48750019         1.09459065E-17
  -6.34499979         1.09564423E-17
  -6.20249987         1.09768183E-17
  -6.05999994         1.09969444E-17
  -5.91750002         1.10075017E-17
  -5.77500010         1.10055289E-17
  -5.63250017         1.09960982E-17
  -5.48999977         1.09891060E-17
  -5.34749985         1.09931443E-17
  -5.20499992         1.10101702E-17
  -5.06250000         1.10342180E-17
  -4.92000008         1.10549132E-17
  -4.77750015         1.10636656E-17
  -4.63500023         1.10588018E-17
  -4.49249983         1.10465413E-17
  -4.34999990         1.10372388E-17
  -4.20749998         1.10391736E-17
  -4.06500006         1.10536269E-17
  -3.92249990         1.10742138E-17
  -3.77999997         1.10908443E-17
  -3.63750005         1.10958901E-17
  -3.49499989         1.10888144E-17
  -3.35249996         1.10764720E-17
  -3.21000004         1.10689025E-17
  -3.06750011         1.10731922E-17
  -2.92499995         1.10891403E-17
  -2.78250003         1.11093599E-17
  -2.64000010         1.11237603E-17
  -2.49749994         1.11256942E-17
  -2.35500002         1.11160352E-17
  -2.21250010         1.11026994E-17
  -2.06999993         1.10958959E-17
  -1.92750001         1.11019698E-17
  -1.78499997         1.11195681E-17
  -1.64250004         1.11404511E-17
  -1.50000000         1.11544693E-17
  -1.35749996         1.11556969E-17
  -1.21500003         1.11460056E-17
  -1.07249999         1.11339098E-17
 -0.930000007         1.11293801E-17
 -0.787500024         1.11377545E-17
 -0.644999981         1.11564554E-17
 -0.502499998         1.11765071E-17
 -0.360000014         1.11879578E-17
 -0.217500001         1.11859477E-17
  -7.50000030E-02     1.11737269E-17
   6.75000027E-02     1.11607898E-17
  0.209999993         1.11572172E-17
  0.352499992         1.11676157E-17
  0.495000005         1.11883209E-17
  0.637499988         1.12095447E-17
  0.779999971         1.12212146E-17
  0.922500014         1.12189812E-17
   1.06500006         1.12068018E-17
   1.20749998         1.11945272E-17
   1.35000002         1.11919472E-17
   1.49249995         1.12028834E-17
   1.63499999         1.12228788E-17
   1.77750003         1.12418949E-17
   1.91999996         1.12503942E-17
   2.06250000         1.12451532E-17
   2.20499992         1.12312913E-17
   2.34750009         1.12192872E-17
   2.49000001         1.12187553E-17
   2.63249993         1.12327049E-17
   2.77500010         1.12557237E-17
   2.91750002         1.12771766E-17
   3.05999994         1.12875007E-17
   3.20250010         1.12838181E-17
   3.34500003         1.12715344E-17
   3.48749995         1.12609639E-17
   3.63000011         1.12610458E-17
   3.77250004         1.12739390E-17
   3.91499996         1.12937426E-17
   4.05749989         1.13100951E-17
   4.19999981         1.13144775E-17
   4.34250021         1.13054141E-17
   4.48500013         1.12894379E-17
   4.62750006         1.12772461E-17
   4.76999998         1.12773570E-17
   4.91249990         1.12910832E-17
   5.05499983         1.13118256E-17
   5.19750023         1.13290880E-17
   5.34000015         1.13347848E-17
   5.48250008         1.13280300E-17
   5.62500000         1.13155545E-17
   5.76749992         1.13075308E-17
   5.90999985         1.13113549E-17
   6.05249977         1.13271541E-17
   6.19500017         1.13477360E-17
   6.33750010         1.13629784E-17
   6.48000002         1.13659910E-17
   6.62249994         1.13573197E-17
   6.76499987         1.13446282E-17
   6.90749979         1.13380828E-17
   7.05000019         1.13442196E-17
   7.19250011         1.13620106E-17
   7.33500004         1.13835082E-17
   7.47749996         1.13986555E-17
   7.61999989         1.14013563E-17
   7.76249981         1.13931192E-17
   7.90500021         1.13820822E-17
   8.04749966         1.13780248E-17
   8.18999958         1.13863934E-17
   8.33250046         1.14049818E-17
   8.47500038         1.14252643E-17
   8.61750031         1.14375827E-17
   8.76000023         1.14370293E-17
   8.90250015         1.14264414E-17
   9.04500008         1.14146913E-17
   9.18750000         1.14112758E-17
   9.32999992         1.14205055E-17
   9.47249985         1.14388019E-17
   9.61499977         1.14567799E-17
   9.75749969         1.14648689E-17
   9.89999962         1.14590877E-17
   10.0424995         1.14434896E-17
   10.1850004         1.14277781E-17
   10.3275003         1.14215321E-17
   10.4700003         1.14285151E-17
   10.6125002         1.14445037E-17
   10.7550001         1.14599546E-17
   10.8975000         1.14659012E-17
   11.0400000         1.14595021E-17
   11.1824999         1.14458867E-17
   11.3249998         1.14351400E-17
   11.4674997         1.14362327E-17
   11.6099997         1.14515504E-17
   11.7524996         1.14753236E-17
   11.8950005         1.14969411E-17
   12.0375004         1.15071808E-17
   12.1800003         1.15036272E-17
   12.3225002         1.14920376E-17
   12.4650002         1.14828179E-17
   12.6075001         1.14847435E-17
   12.7500000         1.14996833E-17
   12.8924999         1.15214886E-17
   13.0349998         1.15397295E-17
   13.1774998         1.15459979E-17
   13.3199997         1.15390041E-17
   13.4624996         1.15253780E-17
   13.6049995         1.15157008E-17
   13.7475004         1.15181335E-17
   13.8900003         1.15334893E-17
   14.0325003         1.15546941E-17
   14.1750002         1.15709796E-17
   14.3175001         1.15742834E-17
   14.4600000         1.15640329E-17
   14.6025000         1.15474587E-17
   14.7449999         1.15352520E-17
   14.8874998         1.15352131E-17
   15.0299997         1.15476746E-17
   15.1724997         1.15654507E-17
   15.3149996         1.15783002E-17
   15.4575005         1.15791902E-17
   15.6000004         1.15685800E-17
   15.7425003         1.15541498E-17
   15.8850002         1.15461592E-17
   16.0275002         1.15512398E-17
   16.1700001         1.15683773E-17
   16.3125000         1.15894977E-17
   16.4549999         1.16042811E-17
   16.5974998         1.16063159E-17
   16.7399998         1.15968621E-17
   16.8824997         1.15839945E-17
   17.0249996         1.15776616E-17
   17.1674995         1.15836611E-17
   17.3099995         1.16001692E-17
   17.4524994         1.16189098E-17
   17.5949993         1.16302215E-17
   17.7374992         1.16289426E-17
   17.8799992         1.16175408E-17
   18.0224991         1.16046053E-17
   18.1650009         1.15996240E-17
   18.3075008         1.16072324E-17
   18.4500008         1.16244105E-17
   18.5925007         1.16423339E-17
   18.7350006         1.16517588E-17
   18.8775005         1.16486510E-17
   19.0200005         1.16366660E-17
   19.1625004         1.16249523E-17
   19.3050003         1.16226213E-17
   19.4475002         1.16332299E-17
   19.5900002         1.16526083E-17
   19.7325001         1.16713745E-17
   19.8750000         1.16805934E-17
   20.0174999         1.16771648E-17
   20.1599998         1.16656661E-17
   20.3024998         1.16555357E-17
   20.4449997         1.16552958E-17
   20.5874996         1.16673230E-17
   20.7299995         1.16863457E-17
   20.8724995         1.17025998E-17
   21.0149994         1.17077490E-17
   21.1574993         1.16999966E-17
   21.2999992         1.16852753E-17
   21.4424992         1.16737750E-17
   21.5849991         1.16738792E-17
   21.7275009         1.16871588E-17
   21.8700008         1.17074305E-17
   22.0125008         1.17244803E-17
   22.1550007         1.17301920E-17
   22.2975006         1.17234133E-17
   22.4400005         1.17106060E-17
   22.5825005         1.17018942E-17
   22.7250004         1.17048720E-17
   22.8675003         1.17199292E-17
   23.0100002         1.17399056E-17
   23.1525002         1.17543184E-17
   23.2950001         1.17556320E-17
   23.4375000         1.17438066E-17
   23.5799999         1.17263920E-17
   23.7224998         1.17140893E-17
   23.8649998         1.17144375E-17
   24.0074997         1.17273986E-17
   24.1499996         1.17454899E-17
   24.2924995         1.17583526E-17
   24.4349995         1.17590284E-17
   24.5774994         1.17481526E-17
   24.7199993         1.17335636E-17
   24.8624992         1.17255656E-17
   25.0049992         1.17307032E-17
   25.1474991         1.17477961E-17
   25.2900009         1.17686104E-17
   25.4325008         1.17827709E-17
   25.5750008         1.17839521E-17
   25.7175007         1.17736331E-17
   25.8600006         1.17601864E-17
   26.0025005         1.17538395E-17
   26.1450005         1.17605644E-17
   26.2875004         1.17785482E-17
   26.4300003         1.17993394E-17
   26.5725002         1.18129688E-17
   26.7150002         1.18139201E-17
   26.8575001         1.18043818E-17
   27.0000000         1.17928212E-17
   27.1424999         1.17887854E-17
   27.2849998         1.17970803E-17
   27.4274998         1.18148415E-17
   27.5699997         1.18332670E-17
   27.7124996         1.18429318E-17
   27.8549995         1.18394791E-17
   27.9974995         1.18262500E-17
   28.1399994         1.18122657E-17
   28.2824993         1.18068104E-17
   28.4249992         1.18138870E-17
   28.5674992         1.18298880E-17
   28.7099991         1.18458782E-17
   28.8525009         1.18530780E-17
   28.9950008         1.18482191E-17
   29.1375008         1.18355260E-17
   29.2800007         1.18241399E-17
   29.4225006         1.18225525E-17
   29.5650005         1.18334333E-17
   29.7075005         1.18520043E-17
   29.8500004         1.18689276E-17
   29.9925003         1.18759652E-17
   30.1350002         1.18709773E-17
   30.2775002         1.18592066E-17
   30.4200001         1.18500877E-17
   30.5625000         1.18514865E-17
   30.7049999         1.18648794E-17
   30.8474998         1.18843917E-17
   30.9899998         1.19002893E-17
   31.1324997         1.19048239E-17
   31.2749996         1.18968987E-17
   31.4174995         1.18827274E-17
   31.5599995         1.18720767E-17
   31.7024994         1.18723612E-17
   31.8449993         1.18841609E-17
   31.9874992         1.19008832E-17
   32.1300011         1.19127781E-17
   32.2724991         1.19128864E-17
   32.4150009         1.19013299E-17
   32.5574989         1.18853124E-17
   32.7000008         1.18748287E-17
   32.8424988         1.18766278E-17
   32.9850006         1.18900910E-17
   33.1274986         1.19075122E-17
   33.2700005         1.19186370E-17
   33.4124985         1.19167618E-17
   33.5550003         1.19027287E-17
   33.6974983         1.18844141E-17
   33.8400002         1.18720229E-17
   33.9824982         1.18720138E-17
   34.1250000         1.18832957E-17
   34.2675018         1.18979931E-17
   34.4099998         1.19063120E-17
   34.5525017         1.19025731E-17
   34.6949997         1.18887716E-17
   34.8375015         1.18735201E-17
   34.9799995         1.18669763E-17
   35.1225014         1.18748064E-17
   35.2649994         1.18948001E-17
   35.4075012         1.19181605E-17
   35.5499992         1.19347099E-17
   35.6925011         1.19388856E-17
   35.8349991         1.19329489E-17
   35.9775009         1.19254918E-17
   36.1199989         1.19261734E-17
   36.2625008         1.19398376E-17
   36.4049988         1.19635603E-17
   36.5475006         1.19883791E-17
   36.6899986         1.20046431E-17
   36.8325005         1.20077566E-17
   36.9749985         1.20008621E-17
   37.1175003         1.19928624E-17
   37.2599983         1.19929848E-17
   37.4025002         1.20051750E-17
   37.5449982         1.20256857E-17
   37.6875000         1.20453098E-17
   37.8300018         1.20548836E-17
   37.9724998         1.20507543E-17
   38.1150017         1.20369263E-17
   38.2574997         1.20226078E-17
   38.4000015         1.20166695E-17
   38.5424995         1.20223597E-17
   38.6850014         1.20354622E-17
   38.8274994         1.20469708E-17
   38.9700012         1.20486557E-17
   39.1124992         1.20381125E-17
   39.2550011         1.20202735E-17
   39.3974991         1.20044479E-17
   39.5400009         1.19987197E-17
   39.6824989         1.20050881E-17
   39.8250008         1.20183015E-17
   39.9674988         1.20290838E-17
   40.1100006         1.20297803E-17
   40.2524986         1.20190170E-17
   40.3950005         1.20025379E-17
   40.5374985         1.19897166E-17
   40.6800003         1.19878704E-17
   40.8224983         1.19978106E-17
   40.9650002         1.20133376E-17
   41.1074982         1.20249760E-17
   41.2500000         1.20257031E-17
   41.3925018         1.20151897E-17
   41.5349998         1.19999861E-17
   41.6775017         1.19895429E-17
   41.8199997         1.19904743E-17
   41.9625015         1.20025462E-17
   42.1049995         1.20188292E-17
   42.2475014         1.20299325E-17
   42.3899994         1.20297671E-17
   42.5325012         1.20193289E-17
   42.6749992         1.20062090E-17
   42.8175011         1.20000804E-17
   42.9599991         1.20068790E-17
   43.1025009         1.20251878E-17
   43.2449989         1.20470063E-17
   43.3875008         1.20624763E-17
   43.5299988         1.20657188E-17
   43.6725006         1.20582791E-17
   43.8149986         1.20481032E-17
   43.9575005         1.20446563E-17
   44.0999985         1.20531283E-17
   44.2425003         1.20712262E-17
   44.3849983         1.20905011E-17
   44.5275002         1.21014150E-17
   44.6699982         1.20991245E-17
   44.8125000         1.20864802E-17
   44.9550018         1.20724132E-17
   45.0974998         1.20666808E-17
   45.2400017         1.20740816E-17
   45.3824997         1.20916245E-17
   45.5250015         1.21103419E-17
   45.6674995         1.21206601E-17
   45.8100014         1.21181099E-17
   45.9524994         1.21059570E-17
   46.0950012         1.20931796E-17
   46.2374992         1.20890221E-17
   46.3800011         1.20973990E-17
   46.5224991         1.21145183E-17
   46.6650009         1.21311414E-17
   46.8074989         1.21381269E-17
   46.9500008         1.21319255E-17
   47.0924988         1.21167203E-17
   47.2350006         1.21019477E-17
   47.3774986         1.20966843E-17
   47.5200005         1.21042654E-17
   47.6624985         1.21203756E-17
   47.8050003         1.21357115E-17
   47.9474983         1.21416192E-17
   48.0900002         1.21352946E-17
   48.2324982         1.21214377E-17
   48.3750000         1.21093749E-17
   48.5175018         1.21074228E-17
   48.6599998         1.21178825E-17
   48.8025017         1.21356817E-17
   48.9449997         1.21514685E-17
   49.0875015         1.21572654E-17
   49.2299995         1.21512675E-17
   49.3725014         1.21388912E-17
   49.5149994         1.21294622E-17
   49.6575012         1.21305516E-17
   49.7999992         1.21433853E-17
   49.9425011         1.21621044E-17
   50.0849991         1.21772989E-17
   50.2275009         1.21816672E-17
   50.3699989         1.21743905E-17
   50.5125008         1.21615675E-17
   50.6549988         1.21524793E-17
   50.7975006         1.21539467E-17
   50.9399986         1.21662080E-17
   51.0825005         1.21828137E-17
   51.2249985         1.21945795E-17
   51.3675003         1.21951999E-17
   51.5099983         1.21851083E-17
   51.6525002         1.21712274E-17
   51.7949982         1.21627703E-17
   51.9375000         1.21656207E-17
   52.0800018         1.21787166E-17
   52.2224998         1.21946333E-17
   52.3650017         1.22040267E-17
   52.5074997         1.22012681E-17
   52.6500015         1.21878545E-17
   52.7924995         1.21715326E-17
   52.9350014         1.21616610E-17
   53.0774994         1.21635950E-17
   53.2200012         1.21755121E-17
   53.3624992         1.21895866E-17
   53.5050011         1.21968071E-17
   53.6474991         1.21925289E-17
   53.7900009         1.21793883E-17
   53.9324989         1.21657870E-17
   54.0750008         1.21608429E-17
   54.2174988         1.21688442E-17
   54.3600006         1.21865591E-17
   54.5024986         1.22050466E-17
   54.6450005         1.22149108E-17
   54.7874985         1.22118601E-17
   54.9300003         1.21992307E-17
   55.0724983         1.21859553E-17
   55.2150002         1.21811883E-17
   55.3574982         1.21888281E-17
   55.5000000         1.22052129E-17
   55.6425018         1.22213851E-17
   55.7849998         1.22285667E-17
   55.9275017         1.22235283E-17
   56.0699997         1.22106284E-17
   56.2125015         1.21992630E-17
   56.3549995         1.21982505E-17
   56.4975014         1.22105135E-17
   56.6399994         1.22312592E-17
   56.7825012         1.22507541E-17
   56.9249992         1.22600467E-17
   57.0675011         1.22562235E-17
   57.2099991         1.22440482E-17
   57.3525009         1.22330293E-17
   57.4949989         1.22316810E-17
   57.6375008         1.22424211E-17
   57.7799988         1.22601642E-17
   57.9225006         1.22754331E-17
   58.0649986         1.22800976E-17
   58.2075005         1.22722848E-17
   58.3499985         1.22574990E-17
   58.4925003         1.22453014E-17
   58.6349983         1.22435486E-17
   58.7775002         1.22536716E-17
   58.9199982         1.22698306E-17
   59.0625000         1.22824492E-17
   59.2050018         1.22839944E-17
   59.3474998         1.22735297E-17
   59.4900017         1.22573021E-17
   59.6324997         1.22450317E-17
   59.7750015         1.22441433E-17
   59.9174995         1.22554137E-17
   60.0600014         1.22726215E-17
   60.2024994         1.22863883E-17
   60.3450012         1.22898690E-17
   60.4874992         1.22828206E-17
   60.6300011         1.22716347E-17
   60.7724991         1.22653158E-17
   60.9150009         1.22698802E-17
   61.0574989         1.22845842E-17
   61.2000008         1.23022759E-17
   61.3424988         1.23136736E-17
   61.4850006         1.23129689E-17
   61.6274986         1.23013784E-17
   61.7700005         1.22864826E-17
   61.9124985         1.22777409E-17
   62.0550003         1.22808958E-17
   62.1974983         1.22946295E-17
   62.3400002         1.23114783E-17
   62.4824982         1.23224343E-17
   62.6250000         1.23224211E-17
   62.7675018         1.23133353E-17
   62.9099998         1.23027954E-17
   63.0525017         1.22993725E-17
   63.1949997         1.23072109E-17
   63.3375015         1.23233268E-17
   63.4799995         1.23392583E-17
   63.6225014         1.23460925E-17
   63.7649994         1.23398481E-17
   63.9075012         1.23239514E-17
   64.0500031         1.23072837E-17
   64.1924973         1.22989581E-17
   64.3349991         1.23029401E-17
   64.4775009         1.23157689E-17
   64.6200027         1.23287325E-17
   64.7624969         1.23331984E-17
   64.9049988         1.23258770E-17
   65.0475006         1.23108314E-17
   65.1900024         1.22970159E-17
   65.3324966         1.22928279E-17
   65.4749985         1.23009599E-17
   65.6175003         1.23166854E-17
   65.7600021         1.23306408E-17
   65.9024963         1.23344483E-17
   66.0449982         1.23258117E-17
   66.1875000         1.23100010E-17
   66.3300018         1.22968099E-17
   66.4725037         1.22947825E-17
   66.6149979         1.23061686E-17
   66.7574997         1.23256123E-17
   66.9000015         1.23433719E-17
   67.0425034         1.23511350E-17
   67.1849976         1.23469404E-17
   67.3274994         1.23362598E-17
   67.4700012         1.23286001E-17
   67.6125031         1.23316764E-17
   67.7549973         1.23466806E-17
   67.8974991         1.23674801E-17
   68.0400009         1.23842454E-17
   68.1825027         1.23893268E-17
   68.3249969         1.23818391E-17
   68.4674988         1.23682039E-17
   68.6100006         1.23583124E-17
   68.7525024         1.23596169E-17
   68.8949966         1.23726797E-17
   69.0374985         1.23908512E-17
   69.1800003         1.24042574E-17
   69.3225021         1.24056826E-17
   69.4649963         1.23948432E-17
   69.6074982         1.23784841E-17
   69.7500000         1.23662848E-17
   69.8925018         1.23650631E-17
   70.0350037         1.23747675E-17
   70.1774979         1.23886683E-17
   70.3199997         1.23976019E-17
   70.4625015         1.23956721E-17
   70.6050034         1.23839584E-17
   70.7474976         1.23699732E-17
   70.8899994         1.23631936E-17
   71.0325012         1.23693652E-17
   71.1750031         1.23870073E-17
   71.3174973         1.24082278E-17
   71.4599991         1.24233429E-17
   71.6025009         1.24265234E-17
   71.7450027         1.24190730E-17
   71.8874969         1.24083991E-17
   72.0299988         1.24033351E-17
   72.1725006         1.24086729E-17
   72.3150024         1.24222411E-17
   72.4574966         1.24362866E-17
   72.5999985         1.24423077E-17
   72.7425003         1.24363834E-17
   72.8850021         1.24217415E-17
   73.0274963         1.24069664E-17
   73.1699982         1.24009280E-17
   73.3125000         1.24074660E-17
   73.4550018         1.24230542E-17
   73.5975037         1.24388674E-17
   73.7399979         1.24460093E-17
   73.8824997         1.24407567E-17
   74.0250015         1.24266682E-17
   74.1675034         1.24122860E-17
   74.3099976         1.24058571E-17
   74.4524994         1.24102660E-17
   74.5950012         1.24212816E-17
   74.7375031         1.24301862E-17
   74.8799973         1.24291853E-17
   75.0224991         1.24163309E-17
   75.1650009         1.23969285E-17
   75.3075027         1.23805429E-17
   75.4499969         1.23753681E-17
   75.5924988         1.23833479E-17
   75.7350006         1.23989866E-17
   75.8775024         1.24126061E-17
   76.0199966         1.24160902E-17
   76.1624985         1.24076976E-17
   76.3050003         1.23930383E-17
   76.4475021         1.23816365E-17
   76.5899963         1.23811509E-17
   76.7324982         1.23927372E-17
   76.8750000         1.24103512E-17
   77.0175018         1.24244199E-17
   77.1600037         1.24276624E-17
   77.3024979         1.24195528E-17
   77.4449997         1.24067017E-17
   77.5875015         1.23989154E-17
   77.7300034         1.24032747E-17
   77.8724976         1.24197935E-17
   78.0149994         1.24412696E-17
   78.1575012         1.24574509E-17
   78.3000031         1.24610193E-17
   78.4424973         1.24518384E-17
   78.5849991         1.24369302E-17
   78.7275009         1.24262091E-17
   78.8700027         1.24265474E-17
   79.0124969         1.24377400E-17
   79.1549988         1.24527624E-17
   79.2975006         1.24621534E-17
   79.4400024         1.24598505E-17
   79.5824966         1.24469506E-17
   79.7249985         1.24311275E-17
   79.8675003         1.24220467E-17
   80.0100021         1.24255482E-17
   80.1524963         1.24400925E-17
   80.2949982         1.24576237E-17
   80.4375000         1.24683167E-17
   80.5800018         1.24663811E-17
   80.7225037         1.24534349E-17
   80.8649979         1.24374529E-17
   81.0074997         1.24279462E-17
   81.1500015         1.24302920E-17
   81.2925034         1.24426212E-17
   81.4349976         1.24571001E-17
   81.5774994         1.24648020E-17
   81.7200012         1.24611831E-17
   81.8625031         1.24488358E-17
   82.0049973         1.24358689E-17
   82.1474991         1.24308967E-17
   82.2900009         1.24377003E-17
   82.4325027         1.24528046E-17
   82.5749969         1.24674556E-17
   82.7174988         1.24728133E-17
   82.8600006         1.24652388E-17
   83.0025024         1.24484793E-17
   83.1449966         1.24314501E-17
   83.2874985         1.24229525E-17
   83.4300003         1.24265251E-17
   83.5725021         1.24385109E-17
   83.7149963         1.24504935E-17
   83.8574982         1.24545822E-17
   84.0000000         1.24483196E-17
   84.1425018         1.24362047E-17
   84.2850037         1.24269188E-17
   84.4274979         1.24279222E-17
   84.5699997         1.24407311E-17
   84.7125015         1.24597686E-17
   84.8550034         1.24755223E-17
   84.9974976         1.24801495E-17
   85.1399994         1.24721350E-17
   85.2825012         1.24572110E-17