  -30.0000000         9.78447028E-19
  -29.8575001         9.80199823E-19
  -29.7150002         9.83398221E-19
  -29.5725002         9.87514375E-19
  -29.4300003         9.91906497E-19
  -29.2875004         9.95948929E-19
  -29.1450005         9.99149704E-19
  -29.0025005         1.00123999E-18
  -28.8600006         1.00221586E-18
  -28.7175007         1.00232742E-18
  -28.5750008         1.00202137E-18
  -28.4325008         1.00184714E-18
  -28.2900009         1.00234490E-18
  -28.1474991         1.00393422E-18
  -28.0049992         1.00682036E-18
  -27.8624992         1.01094602E-18
  -27.7199993         1.01599286E-18
  -27.5774994         1.02143902E-18
  -27.4349995         1.02666401E-18
  -27.2924995         1.03107629E-18
  -27.1499996         1.03423674E-18
  -27.0074997         1.03594942E-18
  -26.8649998         1.03630076E-18
  -26.7224998         1.03563695E-18
  -26.5799999         1.03449213E-18
  -26.4375000         1.03347915E-18
  -26.2950001         1.03316833E-18
  -26.1525002         1.03398259E-18
  -26.0100002         1.03611651E-18
  -25.8675003         1.03950299E-18
  -25.7250004         1.04382780E-18
  -25.5825005         1.04859029E-18
  -25.4400005         1.05320037E-18
  -25.2975006         1.05709764E-18
  -25.1550007         1.05986600E-18
  -25.0125008         1.06132091E-18
  -24.8700008         1.06155180E-18
  -24.7275009         1.06090153E-18
  -24.5849991         1.05989609E-18
  -24.4424992         1.05913022E-18
  -24.2999992         1.05914087E-18
  -24.1574993         1.06029717E-18
  -24.0149994         1.06272805E-18
  -23.8724995         1.06629857E-18
  -23.7299995         1.07064541E-18
  -23.5874996         1.07525094E-18
  -23.4449997         1.07954742E-18
  -23.3024998         1.08302706E-18
  -23.1599998         1.08534306E-18
  -23.0174999         1.08637786E-18
  -22.8750000         1.08627002E-18
  -22.7325001         1.08538825E-18
  -22.5900002         1.08426214E-18
  -22.4475002         1.08347198E-18
  -22.3050003         1.08352750E-18
  -22.1625004         1.08475855E-18
  -22.0200005         1.08724206E-18
  -21.8775005         1.09078777E-18
  -21.7350006         1.09498023E-18
  -21.5925007         1.09926927E-18
  -21.4500008         1.10308877E-18
  -21.3075008         1.10597315E-18
  -21.1650009         1.10765305E-18
  -21.0224991         1.10810604E-18
  -20.8799992         1.10755979E-18
  -20.7374992         1.10644816E-18
  -20.5949993         1.10532712E-18
  -20.4524994         1.10476485E-18
  -20.3099995         1.10523055E-18
  -20.1674995         1.10699679E-18
  -20.0249996         1.11007793E-18
  -19.8824997         1.11422190E-18
  -19.7399998         1.11895586E-18
  -19.5974998         1.12368330E-18
  -19.4549999         1.12781217E-18
  -19.3125000         1.13087925E-18
  -19.1700001         1.13265417E-18
  -19.0275002         1.13318677E-18
  -18.8850002         1.13279593E-18
  -18.7425003         1.13200546E-18
  -18.6000004         1.13143522E-18
  -18.4575005         1.13167603E-18
  -18.3150005         1.13317240E-18
  -18.1725006         1.13613443E-18
  -18.0300007         1.14049233E-18
  -17.8875008         1.14590013E-18
  -17.7450008         1.15179100E-18
  -17.6025009         1.15747962E-18
  -17.4599991         1.16228575E-18
  -17.3174992         1.16566716E-18
  -17.1749992         1.16732669E-18
  -17.0324993         1.16727571E-18
  -16.8899994         1.16583342E-18
  -16.7474995         1.16356240E-18
  -16.6049995         1.16115768E-18
  -16.4624996         1.15930697E-18
  -16.3199997         1.15855795E-18
  -16.1774998         1.15921918E-18
  -16.0349998         1.16131040E-18
  -15.8924999         1.16457073E-18
  -15.7500000         1.16852135E-18
  -15.6075001         1.17256016E-18
  -15.4650002         1.17608281E-18
  -15.3225002         1.17859609E-18
  -15.1800003         1.17981153E-18
  -15.0375004         1.17970204E-18
  -14.8950005         1.17850417E-18
  -14.7524996         1.17667063E-18
  -14.6099997         1.17477421E-18
  -14.4674997         1.17338289E-18
  -14.3249998         1.17293735E-18
  -14.1824999         1.17365369E-18
  -14.0400000         1.17547566E-18
  -13.8975000         1.17808676E-18
  -13.7550001         1.18098251E-18
  -13.6125002         1.18357820E-18
  -13.4700003         1.18533224E-18
  -13.3275003         1.18585864E-18
  -13.1850004         1.18500778E-18
  -13.0424995         1.18289754E-18
  -12.8999996         1.17990066E-18
  -12.7574997         1.17657622E-18
  -12.6149998         1.17357387E-18
  -12.4724998         1.17151471E-18
  -12.3299999         1.17087250E-18
  -12.1875000         1.17188435E-18
  -12.0450001         1.17449979E-18
  -11.9025002         1.17839116E-18
  -11.7600002         1.18301624E-18
  -11.6175003         1.18773034E-18
  -11.4750004         1.19191556E-18
  -11.3325005         1.19510104E-18
  -11.1899996         1.19705029E-18
  -11.0474997         1.19779682E-18
  -10.9049997         1.19762146E-18
  -10.7624998         1.19698494E-18
  -10.6199999         1.19642566E-18
  -10.4775000         1.19644789E-18
  -10.3350000         1.19741766E-18
  -10.1925001         1.19949130E-18
  -10.0500002         1.20257844E-18
  -9.90750027         1.20635410E-18
  -9.76500034         1.21031795E-18
  -9.62250042         1.21389148E-18
  -9.47999954         1.21653298E-18
  -9.33749962         1.21784954E-18
  -9.19499969         1.21767976E-18
  -9.05249977         1.21612745E-18
  -8.90999985         1.21353993E-18
  -8.76749992         1.21043304E-18
  -8.62500000         1.20738405E-18
  -8.48250008         1.20491709E-18
  -8.34000015         1.20340221E-18
  -8.19750023         1.20299430E-18
  -8.05500031         1.20361552E-18
  -7.91249990         1.20498388E-18
  -7.76999998         1.20667877E-18
  -7.62750006         1.20823108E-18
  -7.48500013         1.20922173E-18
  -7.34250021         1.20936845E-18
  -7.19999981         1.20859204E-18
  -7.05749989         1.20703891E-18
  -6.91499996         1.20505543E-18
  -6.77250004         1.20312117E-18
  -6.63000011         1.20174681E-18
  -6.48750019         1.20136124E-18
  -6.34499979         1.20221717E-18
  -6.20249987         1.20433196E-18
  -6.05999994         1.20748331E-18
  -5.91750002         1.21125763E-18
  -5.77500010         1.21513690E-18
  -5.63250017         1.21860351E-18
  -5.48999977         1.22124563E-18
  -5.34749985         1.22283320E-18
  -5.20499992         1.22335753E-18
  -5.06250000         1.22303058E-18
  -4.92000008         1.22224001E-18
  -4.77750015         1.22147342E-18
  -4.63500023         1.22121895E-18
  -4.49249983         1.22186229E-18
  -4.34999990         1.22359865E-18
  -4.20749998         1.22638077E-18
  -4.06500006         1.22991593E-18
  -3.92249990         1.23371538E-18
  -3.77999997         1.23719067E-18
  -3.63750005         1.23977499E-18
  -3.49499989         1.24103996E-18
  -3.35249996         1.24078901E-18
  -3.21000004         1.23909515E-18
  -3.06750011         1.23629039E-18
  -2.92499995         1.23290019E-18
  -2.78250003         1.22954391E-18
  -2.64000010         1.22682238E-18
  -2.49749994         1.22521103E-18
  -2.35500002         1.22497766E-18
  -2.21250010         1.22613644E-18
  -2.06999993         1.22845068E-18
  -1.92750001         1.23148168E-18
  -1.78499997         1.23467801E-18
  -1.64250004         1.23748898E-18
  -1.50000000         1.23948134E-18
  -1.35749996         1.24043115E-18
  -1.21500003         1.24037160E-18
  -1.07249999         1.23958474E-18
 -0.930000007         1.23853588E-18
 -0.787500024         1.23776949E-18
 -0.644999981         1.23778728E-18
 -0.502499998         1.23893830E-18
 -0.360000014         1.24134291E-18
 -0.217500001         1.24486536E-18
  -7.50000030E-02     1.24913630E-18
   6.75000027E-02     1.25362179E-18
  0.209999993         1.25772305E-18
  0.352499992         1.26088878E-18
  0.495000005         1.26272584E-18
  0.637499988         1.26307698E-18
  0.779999971         1.26206255E-18
  0.922500014         1.26006243E-18
   1.06500006         1.25764602E-18
   1.20749998         1.25546185E-18
   1.35000002         1.25410300E-18
   1.49249995         1.25398575E-18
   1.63499999         1.25526323E-18
   1.77750003         1.25779585E-18
   1.91999996         1.26118222E-18
   2.06250000         1.26484187E-18
   2.20499992         1.26813343E-18
   2.34750009         1.27047849E-18
   2.49000001         1.27147193E-18
   2.63249993         1.27095732E-18
   2.77500010         1.26905605E-18
   2.91750002         1.26614706E-18
   3.05999994         1.26280267E-18
   3.20250010         1.25968234E-18
   3.34500003         1.25741307E-18
   3.48749995         1.25646853E-18
   3.63000011         1.25707961E-18
   3.77250004         1.25918758E-18
   3.91499996         1.26246404E-18
   4.05749989         1.26638033E-18
   4.19999981         1.27032288E-18
   4.34250021         1.27371711E-18
   4.48500013         1.27614116E-18
   4.62750006         1.27739713E-18
   4.76999998         1.27753310E-18
   4.91249990         1.27681428E-18
   5.05499983         1.27565592E-18
   5.19750023         1.27452547E-18
   5.34000015         1.27384739E-18
   5.48250008         1.27391408E-18
   5.62500000         1.27482605E-18
   5.76749992         1.27646769E-18
   5.90999985         1.27852685E-18
   6.05249977         1.28055924E-18
   6.19500017         1.28208042E-18
   6.33750010         1.28267827E-18
   6.48000002         1.28211175E-18
   6.62249994         1.28037478E-18
   6.76499987         1.27771125E-18
   6.90749979         1.27457355E-18
   7.05000019         1.27153377E-18
   7.19250011         1.26917123E-18
   7.33500004         1.26795931E-18
   7.47749996         1.26817913E-18
   7.61999989         1.26986948E-18
   7.76249981         1.27282727E-18
   7.90500021         1.27665060E-18
   8.04749966         1.28081370E-18
   8.18999958         1.28476669E-18
   8.33250046         1.28803550E-18
   8.47500038         1.29031190E-18
   8.61750031         1.29151007E-18
   8.76000023         1.29178449E-18
   8.90250015         1.29149384E-18
   9.04500008         1.29112223E-18
   9.18750000         1.29117031E-18
   9.32999992         1.29204009E-18
   9.47249985         1.29394312E-18
   9.61499977         1.29684735E-18
   9.75749969         1.30048064E-18
   9.89999962         1.30438638E-18
   10.0424995         1.30801036E-18
   10.1850004         1.31081357E-18
   10.3275003         1.31237147E-18
   10.4700003         1.31245625E-18
   10.6125002         1.31108044E-18
   10.7550001         1.30849809E-18
   10.8975000         1.30516269E-18
   11.0400000         1.30164738E-18
   11.1824999         1.29854204E-18
   11.3249998         1.29634288E-18
   11.4674997         1.29535760E-18
   11.6099997         1.29565125E-18
   11.7524996         1.29703833E-18
   11.8950005         1.29913285E-18
   12.0375004         1.30143759E-18
   12.1800003         1.30345653E-18
   12.3225002         1.30479945E-18
   12.4650002         1.30526340E-18
   12.6075001         1.30486656E-18
   12.7500000         1.30383848E-18
   12.8924999         1.30256896E-18
   13.0349998         1.30152702E-18
   13.1774998         1.30116575E-18
   13.3199997         1.30183184E-18
   13.4624996         1.30369093E-18
   13.6049995         1.30668439E-18
   13.7475004         1.31053037E-18
   13.8900003         1.31476915E-18
   14.0325003         1.31884932E-18
   14.1750002         1.32223725E-18
   14.3175001         1.32452730E-18
   14.4600000         1.32552653E-18
   14.6025000         1.32529296E-18
   14.7449999         1.32412002E-18
   14.8874998         1.32246824E-18
   15.0299997         1.32086909E-18
   15.1724997         1.31981557E-18
   15.3149996         1.31966668E-18
   15.4575005         1.32058278E-18
   15.6000004         1.32250257E-18
   15.7425003         1.32515585E-18
   15.8850002         1.32811706E-18
   16.0275002         1.33088460E-18
   16.1700001         1.33297881E-18
   16.3125000         1.33404060E-18
   16.4549999         1.33391187E-18
   16.5974998         1.33267772E-18
   16.7399998         1.33066126E-18
   16.8824997         1.32836531E-18
   17.0249996         1.32637232E-18
   17.1674995         1.32522296E-18
   17.3099995         1.32530412E-18
   17.4524994         1.32676813E-18
   17.5949993         1.32950413E-18
   17.7374992         1.33316358E-18
   17.8799992         1.33722690E-18
   18.0224991         1.34110286E-18
   18.1650009         1.34423353E-18
   18.3075008         1.34619126E-18
   18.4500008         1.34675033E-18
   18.5925007         1.34592212E-18
   18.7350006         1.34395364E-18
   18.8775005         1.34127998E-18
   19.0200005         1.33844461E-18
   19.1625004         1.33599264E-18
   19.3050003         1.33436485E-18
   19.4475002         1.33381064E-18
   19.5900002         1.33434180E-18
   19.7325001         1.33574108E-18
   19.8750000         1.33761909E-18
   20.0174999         1.33950568E-18
   20.1599998         1.34095748E-18
   20.3024998         1.34165283E-18
   20.4449997         1.34145379E-18
   20.5874996         1.34042892E-18
   20.7299995         1.33883370E-18
   20.8724995         1.33705464E-18
   21.0149994         1.33553221E-18
   21.1574993         1.33467298E-18
   21.2999992         1.33476635E-18
   21.4424992         1.33592574E-18
   21.5849991         1.33805904E-18
   21.7275009         1.34088552E-18
   21.8700008         1.34399282E-18
   22.0125008         1.34692570E-18
   22.1550007         1.34928740E-18
   22.2975006         1.35082885E-18
   22.4400005         1.35150466E-18
   22.5825005         1.35148119E-18
   22.7250004         1.35109789E-18
   22.8675003         1.35078842E-18
   23.0100002         1.35098746E-18
   23.1525002         1.35203602E-18
   23.2950001         1.35410821E-18
   23.4375000         1.35717115E-18
   23.5799999         1.36098115E-18
   23.7224998         1.36512315E-18
   23.8649998         1.36907842E-18
   24.0074997         1.37232076E-18
   24.1499996         1.37441529E-18
   24.2924995         1.37511094E-18
   24.4349995         1.37439419E-18
   24.5774994         1.37249871E-18
   24.7199993         1.36986207E-18
   24.8624992         1.36703632E-18
   25.0049992         1.36457421E-18
   25.1474991         1.36291809E-18
   25.2900009         1.36231591E-18
   25.4325008         1.36278027E-18
   25.5750008         1.36410210E-18
   25.7175007         1.36590194E-18
   25.8600006         1.36771760E-18
   26.0025005         1.36909920E-18
   26.1450005         1.36970160E-18
   26.2875004         1.36935325E-18
   26.4300003         1.36809831E-18
   26.5725002         1.36619776E-18
   26.7150002         1.36408576E-18
   26.8575001         1.36229109E-18
   27.0000000         1.36133043E-18
   27.1424999         1.36159905E-18
   27.2849998         1.36328040E-18
   27.4274998         1.36630023E-18
   27.5699997         1.37033615E-18
   27.7124996         1.37488099E-18
   27.8549995         1.37934601E-18
   27.9974995         1.38317864E-18
   28.1399994         1.38596438E-18
   28.2824993         1.38749859E-18
   28.4249992         1.38781065E-18
   28.5674992         1.38714611E-18
   28.7099991         1.38590482E-18
   28.8525009         1.38456107E-18
   28.9950008         1.38356731E-18
   29.1375008         1.38326467E-18
   29.2800007         1.38381113E-18
   29.4225006         1.38514558E-18
   29.5650005         1.38699743E-18
   29.7075005         1.38893747E-18
   29.8500004         1.39047479E-18
   29.9925003         1.39116662E-18
   30.1350002         1.39072605E-18
   30.2775002         1.38909505E-18
   30.4200001         1.38646803E-18
   30.5625000         1.38326105E-18
   30.7049999         1.38003153E-18
   30.8474998         1.37736894E-18
   30.9899998         1.37578489E-18
   31.1324997         1.37561511E-18
   31.2749996         1.37695907E-18
   31.4174995         1.37966054E-18
   31.5599995         1.38333353E-18
   31.7024994         1.38742932E-18
   31.8449993         1.39133330E-18
   31.9874992         1.39447855E-18
   32.1300011         1.39645158E-18
   32.2724991         1.39707641E-18
   32.4150009         1.39644910E-18
   32.5574989         1.39492140E-18
   32.7000008         1.39302912E-18
   32.8424988         1.39138334E-18
   32.9850006         1.39054913E-18
   33.1274986         1.39093356E-18
   33.2700005         1.39271159E-18
   33.4124985         1.39579925E-18
   33.5550003         1.39987456E-18
   33.6974983         1.40444080E-18
   33.8400002         1.40891906E-18
   33.9824982         1.41274828E-18
   34.1250000         1.41548408E-18
   34.2675018         1.41687395E-18
   34.4099998         1.41690011E-18
   34.5525017         1.41577494E-18
   34.6949997         1.41389724E-18
   34.8375015         1.41176425E-18
   34.9799995         1.40986897E-18
   35.1225014         1.40859397E-18
   35.2649994         1.40813675E-18
   35.4075012         1.40847517E-18
   35.5499992         1.40938724E-18
   35.6925011         1.41051128E-18
   35.8349991         1.41143327E-18
   35.9775009         1.41178327E-18
   36.1199989         1.41131292E-18
   36.2625008         1.40995045E-18
   36.4049988         1.40782015E-18
   36.5475006         1.40522683E-18
   36.6899986         1.40260560E-18
   36.8325005         1.40045100E-18
   36.9749985         1.39922946E-18
   37.1175003         1.39928809E-18
   37.2599983         1.40078467E-18
   37.4025002         1.40364712E-18
   37.5449982         1.40758130E-18
   37.6875000         1.41212376E-18
   37.8300018         1.41673364E-18
   37.9724998         1.42089663E-18
   38.1150017         1.42422314E-18
   38.2574997         1.42651143E-18
   38.4000015         1.42777040E-18
   38.5424995         1.42819505E-18
   38.6850014         1.42810882E-18
   38.8274994         1.42788807E-18
   38.9700012         1.42788165E-18
   39.1124992         1.42834291E-18
   39.2550011         1.42938123E-18
   39.3974991         1.43093974E-18
   39.5400009         1.43280834E-18
   39.6824989         1.43466288E-18
   39.8250008         1.43613557E-18
   39.9674988         1.43689896E-18
   40.1100006         1.43674996E-18
   40.2524986         1.43566770E-18
   40.3950005         1.43383425E-18
   40.5374985         1.43160614E-18
   40.6800003         1.42944751E-18
   40.8224983         1.42783068E-18
   40.9650002         1.42714174E-18
   41.1074982         1.42760134E-18
   41.2500000         1.42922562E-18
   41.3925018         1.43182462E-18
   41.5349998         1.43504111E-18
   41.6775017         1.43841725E-18
   41.8199997         1.44147658E-18
   41.9625015         1.44380592E-18
   42.1049995         1.44512775E-18
   42.2475014         1.44534654E-18
   42.3899994         1.44456392E-18
   42.5325012         1.44305432E-18
   42.6749992         1.44120536E-18
   42.8175011         1.43943178E-18
   42.9599991         1.43808255E-18
   43.1025009         1.43736735E-18
   43.2449989         1.43731151E-18
   43.3875008         1.43776057E-18
   43.5299988         1.43842717E-18
   43.6725006         1.43896598E-18
   43.8149986         1.43905914E-18
   43.9575005         1.43849407E-18
   44.0999985         1.43721411E-18
   44.2425003         1.43533641E-18
   44.3849983         1.43313663E-18
   44.5275002         1.43100157E-18
   44.6699982         1.42935921E-18
   44.8125000         1.42859644E-18
   44.9550018         1.42898118E-18
   45.0974998         1.43059874E-18
   45.2400017         1.43332523E-18
   45.3824997         1.43683961E-18
   45.5250015         1.44068341E-18
   45.6674995         1.44434968E-18
   45.8100014         1.44738564E-18
   45.9524994         1.44948296E-18
   46.0950012         1.45053441E-18
   46.2374992         1.45064660E-18
   46.3800011         1.45010655E-18
   46.5224991         1.44931721E-18
   46.6650009         1.44871254E-18
   46.8074989         1.44867542E-18
   46.9500008         1.44946704E-18
   47.0924988         1.45118064E-18
   47.2350006         1.45372702E-18
   47.3774986         1.45684662E-18
   47.5200005         1.46015742E-18
   47.6624985         1.46322822E-18
   47.8050003         1.46566706E-18
   47.9474983         1.46720406E-18
   48.0900002         1.46775424E-18
   48.2324982         1.46743505E-18
   48.3750000         1.46654066E-18
   48.5175018         1.46547164E-18
   48.6599998         1.46464115E-18
   48.8025017         1.46438121E-18
   48.9449997         1.46487193E-18
   49.0875015         1.46610671E-18
   49.2299995         1.46790014E-18
   49.3725014         1.46992869E-18
   49.5149994         1.47179378E-18
   49.6575012         1.47309835E-18
   49.7999992         1.47351742E-18
   49.9425011         1.47286208E-18
   50.0849991         1.47112076E-18
   50.2275009         1.46847565E-18
   50.3699989         1.46528108E-18
   50.5125008         1.46200585E-18
   50.6549988         1.45914639E-18
   50.7975006         1.45713024E-18
   50.9399986         1.45622717E-18
   51.0825005         1.45649435E-18
   51.2249985         1.45776841E-18
   51.3675003         1.45970484E-18
   51.5099983         1.46185655E-18
   51.6525002         1.46376630E-18
   51.7949982         1.46505856E-18
   51.9375000         1.46550245E-18
   52.0800018         1.46505360E-18
   52.2224998         1.46385119E-18
   52.3650017         1.46219569E-18
   52.5074997         1.46049087E-18
   52.6500015         1.45917193E-18
   52.7924995         1.45862455E-18
   52.9350014         1.45910503E-18
   53.0774994         1.46068423E-18
   53.2200012         1.46322429E-18
   53.3624992         1.46640056E-18
   53.5050011         1.46976615E-18
   53.6474991         1.47284254E-18
   53.7900009         1.47522037E-18
   53.9324989         1.47664261E-18
   54.0750008         1.47705051E-18
   54.2174988         1.47658884E-18
   54.3600006         1.47557120E-18
   54.5024986         1.47441408E-18
   54.6450005         1.47355774E-18
   54.7874985         1.47338558E-18
   54.9300003         1.47415114E-18
   55.0724983         1.47592978E-18
   55.2150002         1.47859827E-18
   55.3574982         1.48184899E-18
   55.5000000         1.48524446E-18
   55.6425018         1.48830048E-18
   55.7849998         1.49058422E-18
   55.9275017         1.49180721E-18
   56.0699997         1.49188517E-18
   56.2125015         1.49095387E-18
   56.3549995         1.48933621E-18
   56.4975014         1.48746926E-18
   56.6399994         1.48581025E-18
   56.7825012         1.48474712E-18
   56.9249992         1.48452492E-18
   57.0675011         1.48520796E-18
   57.2099991         1.48667186E-18
   57.3525009         1.48863104E-18
   57.4949989         1.49069010E-18
   57.6375008         1.49241860E-18
   57.7799988         1.49343634E-18
   57.9225006         1.49349466E-18
   58.0649986         1.49254102E-18
   58.2075005         1.49074138E-18
   58.3499985         1.48846033E-18
   58.4925003         1.48618755E-18
   58.6349983         1.48443703E-18
   58.7775002         1.48363239E-18
   58.9199982         1.48401992E-18
   59.0625000         1.48561690E-18
   59.2050018         1.48821704E-18
   59.3474998         1.49143870E-18
   59.4900017         1.49480398E-18
   59.6324997         1.49783043E-18
   59.7750015         1.50011717E-18
   59.9174995         1.50141129E-18
   60.0600014         1.50165055E-18
   60.2024994         1.50097547E-18
   60.3450012         1.49970440E-18
   60.4874992         1.49828134E-18
   60.6300011         1.49718698E-18
   60.7724991         1.49683709E-18
   60.9150009         1.49748963E-18
   61.0574989         1.49917832E-18
   61.2000008         1.50169812E-18
   61.3424988         1.50464701E-18
   61.4850006         1.50751351E-18
   61.6274986         1.50978691E-18
   61.7700005         1.51106769E-18
   61.9124985         1.51114359E-18
   62.0550003         1.51002617E-18
   62.1974983         1.50794043E-18
   62.3400002         1.50527846E-18
   62.4824982         1.50252695E-18
   62.6250000         1.50018313E-18
   62.7675018         1.49866981E-18
   62.9099998         1.49826035E-18
   63.0525017         1.49902477E-18
   63.1949997         1.50081407E-18
   63.3375015         1.50328196E-18
   63.4799995         1.50595282E-18
   63.6225014         1.50831835E-18
   63.7649994         1.50994707E-18
   63.9075012         1.51057614E-18
   64.0500031         1.51016265E-18
   64.1924973         1.50888683E-18
   64.3349991         1.50710643E-18
   64.4775009         1.50527681E-18
   64.6200027         1.50385954E-18
   64.7624969         1.50323791E-18
   64.9049988         1.50365419E-18
   65.0475006         1.50517072E-18
   65.1900024         1.50766478E-18
   65.3324966         1.51084963E-18
   65.4749985         1.51432668E-18
   65.6175003         1.51765422E-18
   65.7600021         1.52043231E-18
   65.9024963         1.52238104E-18
   66.0449982         1.52339589E-18
   66.1875000         1.52356319E-18
   66.3300018         1.52313243E-18
   66.4725037         1.52244577E-18
   66.6149979         1.52185889E-18
   66.7574997         1.52165209E-18
   66.9000015         1.52197552E-18
   67.0425034         1.52282503E-18
   67.1849976         1.52405495E-18
   67.3274994         1.52541524E-18
   67.4700012         1.52660421E-18
   67.6125031         1.52732831E-18
   67.7549973         1.52735757E-18
   67.8974991         1.52657485E-18
   68.0400009         1.52501179E-18
   68.1825027         1.52285740E-18
   68.3249969         1.52043738E-18
   68.4674988         1.51816077E-18
   68.6100006         1.51643765E-18
   68.7525024         1.51559154E-18
   68.8949966         1.51578438E-18
   69.0374985         1.51698079E-18
   69.1800003         1.51895600E-18
   69.3225021         1.52134882E-18
   69.4649963         1.52374103E-18
   69.6074982         1.52573929E-18
   69.7500000         1.52704520E-18
   69.8925018         1.52750067E-18
   70.0350037         1.52710486E-18
   70.1774979         1.52600730E-18
   70.3199997         1.52448291E-18
   70.4625015         1.52288469E-18
   70.6050034         1.52158767E-18
   70.7474976         1.52091673E-18
   70.8899994         1.52108020E-18
   71.0325012         1.52211666E-18
   71.1750031         1.52387948E-18
   71.3174973         1.52606355E-18
   71.4599991         1.52827160E-18
   71.6025009         1.53010701E-18
   71.7450027         1.53126248E-18
   71.8874969         1.53158601E-18
   72.0299988         1.53110439E-18
   72.1725006         1.53000754E-18
   72.3150024         1.52859958E-18
   72.4574966         1.52723597E-18
   72.5999985         1.52625659E-18
   72.7425003         1.52593161E-18
   72.8850021         1.52641696E-18
   73.0274963         1.52773207E-18
   73.1699982         1.52975133E-18
   73.3125000         1.53222460E-18
   73.4550018         1.53482339E-18
   73.5975037         1.53720701E-18
   73.7399979         1.53909981E-18
   73.8824997         1.54035568E-18
   74.0250015         1.54099385E-18
   74.1675034         1.54118906E-18
   74.3099976         1.54122215E-18
   74.4524994         1.54140392E-18
   74.5950012         1.54199318E-18
   74.7375031         1.54313304E-18
   74.8799973         1.54481728E-18
   75.0224991         1.54689154E-18
   75.1650009         1.54908605E-18
   75.3075027         1.55106332E-18
   75.4499969         1.55247894E-18
   75.5924988         1.55304618E-18
   75.7350006         1.55259433E-18
   75.8775024         1.55111399E-18
   76.0199966         1.54877772E-18
   76.1624985         1.54592519E-18
   76.3050003         1.54300834E-18
   76.4475021         1.54050736E-18
   76.5899963         1.53882963E-18
   76.7324982         1.53822238E-18
   76.8750000         1.53872096E-18
   77.0175018         1.54014495E-18
   77.1600037         1.54214394E-18
   77.3024979         1.54427703E-18
   77.4449997         1.54610376E-18
   77.5875015         1.54726636E-18
   77.7300034         1.54755556E-18
   77.8724976         1.54694262E-18
   78.0149994         1.54558470E-18
   78.1575012         1.54380347E-18
   78.3000031         1.54203454E-18
   78.4424973         1.54075035E-18
   78.5849991         1.54037305E-18
   78.7275009         1.54118338E-18
   78.8700027         1.54325226E-18
   79.0124969         1.54641705E-18
   79.1549988         1.55030987E-18
   79.2975006         1.55443677E-18
   79.4400024         1.55828440E-18
   79.5824966         1.56142996E-18
   79.7249985         1.56362127E-18
   79.8675003         1.56481293E-18
   80.0100021         1.56515600E-18
   80.1524963         1.56494517E-18
   80.2949982         1.56455050E-18
   80.4375000         1.56433688E-18
   80.5800018         1.56459455E-18
   80.7225037         1.56547912E-18
   80.8649979         1.56697590E-18
   81.0074997         1.56888907E-18
   81.1500015         1.57086417E-18
   81.2925034         1.57245370E-18
   81.4349976         1.57320695E-18
   81.5774994         1.57277464E-18
   81.7200012         1.57100251E-18
   81.8625031         1.56797782E-18
   82.0049973         1.56402866E-18
   82.1474991         1.55965928E-18
   82.2900009         1.55544935E-18
   82.4325027         1.55194189E-18
   82.5749969         1.54954369E-18
   82.7174988         1.54846143E-18
   82.8600006         1.54868094E-18
   83.0025024         1.54998375E-18
   83.1449966         1.55199380E-18
   83.2874985         1.55424818E-18
   83.4300003         1.55627684E-18
   83.5725021         1.55768790E-18
   83.7149963         1.55824036E-18
   83.8574982         1.55789439E-18
   84.0000000         1.55682133E-18
   84.1425018         1.55536663E-18
   84.2850037         1.55397066E-18
   84.4274979         1.55306541E-18
   84.5699997         1.55296946E-18
   84.7125015         1.55381784E-18
   84.8550034         1.55553258E-18
   84.9974976         1.55784403E-18
   85.1399994         1.56035628E-18
   85.2825012         1.56262710E-18