  -30.0000000         4.89664411E-18
  -29.8575001         4.90199184E-18
  -29.7150002         4.91176994E-18
  -29.5725002         4.92439065E-18
  -29.4300003         4.93790388E-18
  -29.2875004         4.95037901E-18
  -29.1450005         4.96027292E-18
  -29.0025005         4.96671913E-18
  -28.8600006         4.96968127E-18
  -28.7175007         4.96993521E-18
  -28.5750008         4.96889007E-18
  -28.4325008         4.96827920E-18
  -28.2900009         4.96979376E-18
  -28.1474991         4.97472252E-18
  -28.0049992         4.98367096E-18
  -27.8624992         4.99642733E-18
  -27.7199993         5.01199114E-18
  -27.5774994         5.02876471E-18
  -27.4349995         5.04486702E-18
  -27.2924995         5.05850682E-18
  -27.1499996         5.06834365E-18
  -27.0074997         5.07375631E-18
  -26.8649998         5.07496812E-18
  -26.7224998         5.07300481E-18
  -26.5799999         5.06948971E-18
  -26.4375000         5.06632450E-18
  -26.2950001         5.06530872E-18
  -26.1525002         5.06778902E-18
  -26.0100002         5.07439489E-18
  -25.8675003         5.08492076E-18
  -25.7250004         5.09837403E-18
  -25.5825005         5.11318056E-18
  -25.4400005         5.12750526E-18
  -25.2975006         5.13962263E-18
  -25.1550007         5.14826791E-18
  -25.0125008         5.15288730E-18
  -24.8700008         5.15375005E-18
  -24.7275009         5.15188889E-18
  -24.5849991         5.14888871E-18
  -24.4424992         5.14655771E-18
  -24.2999992         5.14656102E-18
  -24.1574993         5.15007902E-18
  -24.0149994         5.15756790E-18
  -23.8724995         5.16866577E-18
  -23.7299995         5.18226875E-18
  -23.5874996         5.19675517E-18
  -23.4449997         5.21031266E-18
  -23.3024998         5.22130796E-18
  -23.1599998         5.22861403E-18
  -23.0174999         5.23184086E-18
  -22.8750000         5.23141445E-18
  -22.7325001         5.22849243E-18
  -22.5900002         5.22473290E-18
  -22.4475002         5.22195729E-18
  -22.3050003         5.22178400E-18
  -22.1625004         5.22529869E-18
  -22.0200005         5.23283182E-18
  -21.8775005         5.24389536E-18
  -21.7350006         5.25727915E-18
  -21.5925007         5.27129862E-18
  -21.4500008         5.28413729E-18
  -21.3075008         5.29421566E-18
  -21.1650009         5.30051050E-18
  -21.0224991         5.30275754E-18
  -20.8799992         5.30150642E-18
  -20.7374992         5.29800290E-18
  -20.5949993         5.29393483E-18
  -20.4524994         5.29108974E-18
  -20.3099995         5.29099048E-18
  -20.1674995         5.29458375E-18
  -20.0249996         5.30204906E-18
  -19.8824997         5.31276146E-18
  -19.7399998         5.32541691E-18
  -19.5974998         5.33830273E-18
  -19.4549999         5.34965247E-18
  -19.3125000         5.35801403E-18
  -19.1700001         5.36255401E-18
  -19.0275002         5.36323685E-18
  -18.8850002         5.36084009E-18
  -18.7425003         5.35680138E-18
  -18.6000004         5.35292893E-18
  -18.4575005         5.35103262E-18
  -18.3150005         5.35255588E-18
  -18.1725006         5.35827542E-18
  -18.0300007         5.36813210E-18
  -17.8875008         5.38123257E-18
  -17.7450008         5.39601222E-18
  -17.6025009         5.41053669E-18
  -17.4599991         5.42287822E-18
  -17.3174992         5.43149662E-18
  -17.1749992         5.43554443E-18
  -17.0324993         5.43503612E-18
  -16.8899994         5.43085018E-18
  -16.7474995         5.42455492E-18
  -16.6049995         5.41809795E-18
  -16.4624996         5.41342148E-18
  -16.3199997         5.41207648E-18
  -16.1774998         5.41492447E-18
  -16.0349998         5.42197163E-18
  -15.8924999         5.43237963E-18
  -15.7500000         5.44464300E-18
  -15.6075001         5.45689851E-18
  -15.4650002         5.46730237E-18
  -15.3225002         5.47439999E-18
  -15.1800003         5.47741714E-18
  -15.0375004         5.47641170E-18
  -14.8950005         5.47226008E-18
  -14.7524996         5.46647271E-18
  -14.6099997         5.46088717E-18
  -14.4674997         5.45728770E-18
  -14.3249998         5.45703747E-18
  -14.1824999         5.46079577E-18
  -14.0400000         5.46837771E-18
  -13.8975000         5.47878695E-18
  -13.7550001         5.49041462E-18
  -13.6125002         5.50136195E-18
  -13.4700003         5.50982400E-18
  -13.3275003         5.51444918E-18
  -13.1850004         5.51461669E-18
  -13.0424995         5.51055937E-18
  -12.8999996         5.50332361E-18
  -12.7574997         5.49456790E-18
  -12.6149998         5.48624191E-18
  -12.4724998         5.48020804E-18
  -12.3299999         5.47788325E-18
  -12.1875000         5.47996651E-18
  -12.0450001         5.48631346E-18
  -11.9025002         5.49597907E-18
  -11.7600002         5.50742022E-18
  -11.6175003         5.51881753E-18
  -11.4750004         5.52845790E-18
  -11.3325005         5.53508031E-18
  -11.1899996         5.53813550E-18
  -11.0474997         5.53788611E-18
  -10.9049997         5.53534625E-18
  -10.7624998         5.53205862E-18
  -10.6199999         5.52977022E-18
  -10.4775000         5.53005891E-18
  -10.3350000         5.53399753E-18
  -10.1925001         5.54191530E-18
  -10.0500002         5.55330889E-18
  -9.90750027         5.56691353E-18
  -9.76500034         5.58093424E-18
  -9.62250042         5.59338414E-18
  -9.47999954         5.60246451E-18
  -9.33749962         5.60691888E-18
  -9.19499969         5.60627905E-18
  -9.05249977         5.60096070E-18
  -8.90999985         5.59218224E-18
  -8.76749992         5.58172916E-18
  -8.62500000         5.57160736E-18
  -8.48250008         5.56365568E-18
  -8.34000015         5.55920379E-18
  -8.19750023         5.55883197E-18
  -8.05500031         5.56228504E-18
  -7.91249990         5.56855590E-18
  -7.76999998         5.57611178E-18
  -7.62750006         5.58321974E-18
  -7.48500013         5.58831269E-18
  -7.34250021         5.59031281E-18
  -7.19999981         5.58885284E-18
  -7.05749989         5.58435877E-18
  -6.91499996         5.57795970E-18
  -6.77250004         5.57125788E-18
  -6.63000011         5.56599949E-18
  -6.48750019         5.56370862E-18
  -6.34499979         5.56537001E-18
  -6.20249987         5.57122024E-18
  -6.05999994         5.58069643E-18
  -5.91750002         5.59254496E-18
  -5.77500010         5.60507468E-18
  -5.63250017         5.61649473E-18
  -5.48999977         5.62526905E-18
  -5.34749985         5.63041701E-18
  -5.20499992         5.63170121E-18
  -5.06250000         5.62966180E-18
  -4.92000008         5.62550232E-18
  -4.77750015         5.62083412E-18
  -4.63500023         5.61734714E-18
  -4.49249983         5.61645586E-18
  -4.34999990         5.61900812E-18
  -4.20749998         5.62510072E-18
  -4.06500006         5.63405909E-18
  -3.92249990         5.64457338E-18
  -3.77999997         5.65497145E-18
  -3.63750005         5.66356876E-18
  -3.49499989         5.66902649E-18
  -3.35249996         5.67063288E-18
  -3.21000004         5.66846194E-18
  -3.06750011         5.66336692E-18
  -2.92499995         5.65681731E-18
  -2.78250003         5.65060766E-18
  -2.64000010         5.64650402E-18
  -2.49749994         5.64588942E-18
  -2.35500002         5.64948477E-18
  -2.21250010         5.65719367E-18
  -2.06999993         5.66811329E-18
  -1.92750001         5.68069801E-18
  -1.78499997         5.69306105E-18
  -1.64250004         5.70334043E-18
  -1.50000000         5.71007202E-18
  -1.35749996         5.71248036E-18
  -1.21500003         5.71063078E-18
  -1.07249999         5.70541706E-18
 -0.930000007         5.69837238E-18
 -0.787500024         5.69136120E-18
 -0.644999981         5.68620166E-18
 -0.502499998         5.68430493E-18
 -0.360000014         5.68639646E-18
 -0.217500001         5.69237987E-18
  -7.50000030E-02     5.70136305E-18
   6.75000027E-02     5.71183599E-18
  0.209999993         5.72198053E-18
  0.352499992         5.73002651E-18
  0.495000005         5.73461323E-18
  0.637499988         5.73506198E-18
  0.779999971         5.73151916E-18
  0.922500014         5.72493025E-18
   1.06500006         5.71685325E-18
   1.20749998         5.70914475E-18
   1.35000002         5.70358486E-18
   1.49249995         5.70151649E-18
   1.63499999         5.70358031E-18
   1.77750003         5.70958978E-18
   1.91999996         5.71858330E-18
   2.06250000         5.72902397E-18
   2.20499992         5.73911682E-18
   2.34750009         5.74717231E-18
   2.49000001         5.75193770E-18
   2.63249993         5.75284884E-18
   2.77500010         5.75013693E-18
   2.91750002         5.74478176E-18
   3.05999994         5.73831445E-18
   3.20250010         5.73251095E-18
   3.34500003         5.72903183E-18
   3.48749995         5.72908187E-18
   3.63000011         5.73316442E-18
   3.77250004         5.74097797E-18
   3.91499996         5.75147655E-18
   4.05749989         5.76309016E-18
   4.19999981         5.77404989E-18
   4.34250021         5.78275307E-18
   4.48500013         5.78808756E-18
   4.62750006         5.78965796E-18
   4.76999998         5.78785347E-18
   4.91249990         5.78376430E-18
   5.05499983         5.77895425E-18
   5.19750023         5.77513805E-18
   5.34000015         5.77383359E-18
   5.48250008         5.77604671E-18
   5.62500000         5.78205535E-18
   5.76749992         5.79133921E-18
   5.90999985         5.80267034E-18
   6.05249977         5.81434476E-18
   6.19500017         5.82452487E-18
   6.33750010         5.83160760E-18
   6.48000002         5.83455733E-18
   6.62249994         5.83312052E-18
   6.76499987         5.82788570E-18
   6.90749979         5.82016976E-18
   7.05000019         5.81176478E-18
   7.19250011         5.80458485E-18
   7.33500004         5.80029923E-18
   7.47749996         5.80001592E-18
   7.61999989         5.80407944E-18
   7.76249981         5.81201087E-18
   7.90500021         5.82261780E-18
   8.04749966         5.83422935E-18
   8.18999958         5.84503026E-18
   8.33250046         5.85341870E-18
   8.47500038         5.85832140E-18
   8.61750031         5.85940625E-18
   8.76000023         5.85713605E-18
   8.90250015         5.85266142E-18
   9.04500008         5.84757136E-18
   9.18750000         5.84354961E-18
   9.32999992         5.84201726E-18
   9.47249985         5.84383333E-18
   9.61499977         5.84911736E-18
   9.75749969         5.85722580E-18
   9.89999962         5.86688892E-18
   10.0424995         5.87647098E-18
   10.1850004         5.88430190E-18
   10.3275003         5.88901476E-18
   10.4700003         5.88982623E-18
   10.6125002         5.88669990E-18
   10.7550001         5.88036659E-18
   10.8975000         5.87218908E-18
   11.0400000         5.86390073E-18
   11.1824999         5.85726095E-18
   11.3249998         5.85370408E-18
   11.4674997         5.85404653E-18
   11.6099997         5.85832802E-18
   11.7524996         5.86580738E-18
   11.8950005         5.87512764E-18
   12.0375004         5.88460424E-18
   12.1800003         5.89257950E-18
   12.3225002         5.89776551E-18
   12.4650002         5.89950631E-18
   12.6075001         5.89790902E-18
   12.7500000         5.89381737E-18
   12.8924999         5.88864005E-18
   13.0349998         5.88406864E-18
   13.1774998         5.88173227E-18
   13.3199997         5.88286137E-18
   13.4624996         5.88802504E-18
   13.6049995         5.89699375E-18
   13.7475004         5.90876370E-18
   13.8900003         5.92173927E-18
   14.0325003         5.93404275E-18
   14.1750002         5.94389158E-18
   14.3175001         5.94995771E-18
   14.4600000         5.95163813E-18
   14.6025000         5.94917726E-18
   14.7449999         5.94361737E-18
   14.8874998         5.93658592E-18
   15.0299997         5.92997551E-18
   15.1724997         5.92557036E-18
   15.3149996         5.92470306E-18
   15.4575005         5.92800103E-18
   15.6000004         5.93526739E-18
   15.7425003         5.94552237E-18
   15.8850002         5.95719678E-18
   16.0275002         5.96843858E-18
   16.1700001         5.97747842E-18
   16.3125000         5.98298744E-18
   16.4549999         5.98434567E-18
   16.5974998         5.98176735E-18
   16.7399998         5.97625874E-18
   16.8824997         5.96940845E-18
   17.0249996         5.96305735E-18
   17.1674995         5.95892021E-18
   17.3099995         5.95823903E-18
   17.4524994         5.96153865E-18
   17.5949993         5.96852791E-18
   17.7374992         5.97816994E-18
   17.8799992         5.98889393E-18
   18.0224991         5.99890860E-18
   18.1650009         6.00655796E-18
   18.3075008         6.01064754E-18
   18.4500008         6.01068311E-18
   18.5925007         6.00697031E-18
   18.7350006         6.00056255E-18
   18.8775005         5.99304968E-18
   19.0200005         5.98624199E-18
   19.1625004         5.98180085E-18
   19.3050003         5.98090088E-18
   19.4475002         5.98398957E-18
   19.5900002         5.99070835E-18
   19.7325001         5.99997029E-18
   19.8750000         6.01019838E-18
   20.0174999         6.01965347E-18
   20.1599998         6.02678749E-18
   20.3024998         6.03055240E-18
   20.4449997         6.03060203E-18
   20.5874996         6.02735493E-18
   20.7299995         6.02190340E-18
   20.8724995         6.01579384E-18
   21.0149994         6.01071743E-18
   21.1574993         6.00816517E-18
   21.2999992         6.00912304E-18
   21.4424992         6.01386031E-18
   21.5849991         6.02186659E-18
   21.7275009         6.03194909E-18
   21.8700008         6.04247414E-18
   22.0125008         6.05170878E-18
   22.1550007         6.05817733E-18
   22.2975006         6.06096866E-18
   22.4400005         6.05991938E-18
   22.5825005         6.05564120E-18
   22.7250004         6.04938771E-18
   22.8675003         6.04280005E-18
   23.0100002         6.03757557E-18
   23.1525002         6.03513332E-18
   23.2950001         6.03633315E-18
   23.4375000         6.04130450E-18
   23.5799999         6.04941667E-18
   23.7224998         6.05939494E-18
   23.8649998         6.06956678E-18
   24.0074997         6.07819552E-18
   24.1499996         6.08383400E-18
   24.2924995         6.08562112E-18
   24.4349995         6.08346880E-18
   24.5774994         6.07808013E-18
   24.7199993         6.07080756E-18
   24.8624992         6.06337327E-18
   25.0049992         6.05751849E-18
   25.1474991         6.05465479E-18
   25.2900009         6.05558991E-18
   25.4325008         6.06037929E-18
   25.5750008         6.06833222E-18
   25.7175007         6.07815706E-18
   25.8600006         6.08822467E-18
   26.0025005         6.09689021E-18
   26.1450005         6.10281986E-18
   26.2875004         6.10525673E-18
   26.4300003         6.10417726E-18
   26.5725002         6.10029903E-18
   26.7150002         6.09494014E-18
   26.8575001         6.08974668E-18
   27.0000000         6.08634863E-18
   27.1424999         6.08601238E-18
   27.2849998         6.08937528E-18
   27.4274998         6.09630995E-18
   27.5699997         6.10595239E-18
   27.7124996         6.11688441E-18
   27.8549995         6.12742600E-18
   27.9974995         6.13597615E-18
   28.1399994         6.14132884E-18
   28.2824993         6.14290545E-18
   28.4249992         6.14086893E-18
   28.5674992         6.13608700E-18
   28.7099991         6.12996255E-18
   28.8525009         6.12415822E-18
   28.9950008         6.12026468E-18
   29.1375008         6.11947638E-18
   29.2800007         6.12234132E-18
   29.4225006         6.12863906E-18
   29.5650005         6.13742206E-18
   29.7075005         6.14720761E-18
   29.8500004         6.15629005E-18
   29.9925003         6.16309692E-18
   30.1350002         6.16651442E-18
   30.2775002         6.16611572E-18
   30.4200001         6.16223914E-18
   30.5625000         6.15591451E-18
   30.7049999         6.14864897E-18
   30.8474998         6.14212583E-18
   30.9899998         6.13787164E-18
   31.1324997         6.13695471E-18
   31.2749996         6.13977457E-18
   31.4174995         6.14597304E-18
   31.5599995         6.15450086E-18
   31.7024994         6.16381781E-18
   31.8449993         6.17220294E-18
   31.9874992         6.17810942E-18
   32.1300011         6.18049295E-18
   32.2724991         6.17903669E-18
   32.4150009         6.17422623E-18
   32.5574989         6.16725640E-18
   32.7000008         6.15978779E-18
   32.8424988         6.15360834E-18
   32.9850006         6.15027438E-18
   33.1274986         6.15080585E-18
   33.2700005         6.15548645E-18
   33.4124985         6.16381533E-18
   33.5550003         6.17460177E-18
   33.6974983         6.18618808E-18
   33.8400002         6.19676152E-18
   33.9824982         6.20469666E-18
   34.1250000         6.20886731E-18
   34.2675018         6.20886731E-18
   34.4099998         6.20509288E-18
   34.5525017         6.19866569E-18
   34.6949997         6.19120783E-18
   34.8375015         6.18451015E-18
   34.9799995         6.18016704E-18
   35.1225014         6.17925590E-18
   35.2649994         6.18213076E-18
   35.4075012         6.18837225E-18
   35.5499992         6.19689470E-18
   35.6925011         6.20618518E-18
   35.8349991         6.21461828E-18
   35.9775009         6.22078078E-18
   36.1199989         6.22374912E-18
   36.2625008         6.22326521E-18
   36.4049988         6.21978527E-18
   36.5475006         6.21439453E-18
   36.6899986         6.20859062E-18
   36.8325005         6.20398777E-18
   36.9749985         6.20198475E-18
   37.1175003         6.20347409E-18
   37.2599983         6.20864645E-18
   37.4025002         6.21694762E-18
   37.5449982         6.22719184E-18
   37.6875000         6.23781532E-18
   37.8300018         6.24720465E-18
   37.9724998         6.25403302E-18
   38.1150017         6.25752745E-18
   38.2574997         6.25761637E-18
   38.4000015         6.25492679E-18
   38.5424995         6.25064613E-18
   38.6850014         6.24627655E-18
   38.8274994         6.24332600E-18
   38.9700012         6.24300919E-18
   39.1124992         6.24599242E-18
   39.2550011         6.25224631E-18
   39.3974991         6.26103594E-18
   39.5400009         6.27104937E-18
   39.6824989         6.28065666E-18
   39.8250008         6.28824397E-18
   39.9674988         6.29255483E-18
   40.1100006         6.29295808E-18
   40.2524986         6.28958814E-18
   40.3950005         6.28332059E-18
   40.5374985         6.27558852E-18
   40.6800003         6.26808889E-18
   40.8224983         6.26243428E-18
   40.9650002         6.25983776E-18
   41.1074982         6.26087546E-18
   41.2500000         6.26538360E-18
   41.3925018         6.27249115E-18
   41.5349998         6.28079273E-18
   41.6775017         6.28861869E-18
   41.8199997         6.29436428E-18
   41.9625015         6.29681398E-18
   42.1049995         6.29539330E-18
   42.2475014         6.29030572E-18
   42.3899994         6.28250665E-18
   42.5325012         6.27352140E-18
   42.6749992         6.26514165E-18
   42.8175011         6.25906311E-18
   42.9599991         6.25654641E-18
   43.1025009         6.25817554E-18
   43.2449989         6.26376067E-18
   43.3875008         6.27240140E-18
   43.5299988         6.28268491E-18
   43.6725006         6.29297545E-18
   43.8149986         6.30173570E-18
   43.9575005         6.30781589E-18
   44.0999985         6.31066429E-18
   44.2425003         6.31042358E-18
   44.3849983         6.30789117E-18
   44.5275002         6.30435497E-18
   44.6699982         6.30132335E-18
   44.8125000         6.30020418E-18
   44.9550018         6.30199916E-18
   45.0974998         6.30707846E-18
   45.2400017         6.31508640E-18
   45.3824997         6.32501670E-18
   45.5250015         6.33541560E-18
   45.6674995         6.34469367E-18
   45.8100014         6.35145381E-18
   45.9524994         6.35476915E-18
   46.0950012         6.35436135E-18
   46.2374992         6.35064317E-18
   46.3800011         6.34462709E-18
   46.5224991         6.33773005E-18
   46.6650009         6.33149890E-18
   46.8074989         6.32732205E-18
   46.9500008         6.32616359E-18
   47.0924988         6.32837381E-18
   47.2350006         6.33361690E-18
   47.3774986         6.34093579E-18
   47.5200005         6.34894373E-18
   47.6624985         6.35612324E-18
   47.8050003         6.36114754E-18
   47.9474983         6.36317454E-18
   48.0900002         6.36202890E-18
   48.2324982         6.35824000E-18
   48.3750000         6.35292412E-18
   48.5175018         6.34755158E-18
   48.6599998         6.34363778E-18
   48.8025017         6.34243919E-18
   48.9449997         6.34470070E-18
   49.0875015         6.35051082E-18
   49.2299995         6.35926777E-18
   49.3725014         6.36977999E-18
   49.5149994         6.38047420E-18
   49.6575012         6.38968113E-18
   49.7999992         6.39595406E-18
   49.9425011         6.39835453E-18
   50.0849991         6.39665096E-18
   50.2275009         6.39137644E-18
   50.3699989         6.38373040E-18
   50.5125008         6.37534154E-18
   50.6549988         6.36793455E-18
   50.7975006         6.36299008E-18
   50.9399986         6.36145773E-18
   51.0825005         6.36359103E-18
   51.2249985         6.36892593E-18
   51.3675003         6.37639992E-18
   51.5099983         6.38457950E-18
   51.6525002         6.39194926E-18
   51.7949982         6.39720806E-18
   51.9375000         6.39952045E-18
   52.0800018         6.39868334E-18
   52.2224998         6.39517361E-18
   52.3650017         6.39006039E-18
   52.5074997         6.38479663E-18
   52.6500015         6.38092129E-18
   52.7924995         6.37973263E-18
   52.9350014         6.38200986E-18
   53.0774994         6.38784314E-18
   53.2200012         6.39661291E-18
   53.3624992         6.40712679E-18
   53.5050011         6.41787641E-18
   53.6474991         6.42734267E-18
   53.7900009         6.43430174E-18
   53.9324989         6.43804556E-18
   54.0750008         6.43850257E-18
   54.2174988         6.43622286E-18
   54.3600006         6.43225529E-18
   54.5024986         6.42793120E-18
   54.6450005         6.42459560E-18
   54.7874985         6.42333167E-18
   54.9300003         6.42473126E-18
   55.0724983         6.42875714E-18
   55.2150002         6.43473973E-18
   55.3574982         6.44151144E-18
   55.5000000         6.44765946E-18
   55.6425018         6.45184376E-18
   55.7849998         6.45309942E-18
   55.9275017         6.45106000E-18
   56.0699997         6.44604356E-18
   56.2125015         6.43899102E-18
   56.3549995         6.43127260E-18
   56.4975014         6.42441362E-18
   56.6399994         6.41979836E-18
   56.7825012         6.41840829E-18
   56.9249992         6.42064168E-18
   57.0675011         6.42623424E-18
   57.2099991         6.43430504E-18
   57.3525009         6.44351032E-18
   57.4949989         6.45229581E-18
   57.6375008         6.45919987E-18
   57.7799988         6.46315131E-18
   57.9225006         6.46369891E-18
   58.0649986         6.46111397E-18
   58.2075005         6.45634238E-18
   58.3499985         6.45079944E-18
   58.4925003         6.44607128E-18
   58.6349983         6.44357319E-18
   58.7775002         6.44426140E-18
   58.9199982         6.44844280E-18
   59.0625000         6.45572695E-18
   59.2050018         6.46511256E-18
   59.3474998         6.47518803E-18
   59.4900017         6.48439786E-18
   59.6324997         6.49133501E-18
   59.7750015         6.49500563E-18
   59.9174995         6.49502258E-18
   60.0600014         6.49169690E-18
   60.2024994         6.48598853E-18
   60.3450012         6.47933345E-18
   60.4874992         6.47335541E-18
   60.6300011         6.46953425E-18
   60.7724991         6.46889153E-18
   60.9150009         6.47177964E-18
   61.0574989         6.47781309E-18
   61.2000008         6.48596620E-18
   61.3424988         6.49480255E-18
   61.4850006         6.50278236E-18
   61.6274986         6.50857883E-18
   61.7700005         6.51133789E-18
   61.9124985         6.51083580E-18
   62.0550003         6.50751715E-18
   62.1974983         6.50240641E-18
   62.3400002         6.49691683E-18
   62.4824982         6.49257785E-18
   62.6250000         6.49073365E-18
   62.7675018         6.49226145E-18
   62.9099998         6.49737302E-18
   63.0525017         6.50554184E-18
   63.1949997         6.51559250E-18
   63.3375015         6.52593432E-18
   63.4799995         6.53488773E-18
   63.6225014         6.54103699E-18
   63.7649994         6.54351770E-18
   63.9075012         6.54218305E-18
   64.0500031         6.53761329E-18
   64.1924973         6.53097723E-18
   64.3349991         6.52378696E-18
   64.4775009         6.51759758E-18
   64.6200027         6.51370859E-18
   64.7624969         6.51292194E-18
   64.9049988         6.51539232E-18
   65.0475006         6.52059239E-18
   65.1900024         6.52741084E-18
   65.3324966         6.53436867E-18
   65.4749985         6.53992195E-18
   65.6175003         6.54279433E-18
   65.7600021         6.54226328E-18
   65.9024963         6.53833831E-18
   66.0449982         6.53177174E-18
   66.1875000         6.52390649E-18
   66.3300018         6.51639900E-18
   66.4725037         6.51087054E-18
   66.6149979         6.50857801E-18
   66.7574997         6.51017695E-18
   66.9000015         6.51560573E-18
   67.0425034         6.52410956E-18
   67.1849976         6.53439307E-18
   67.3274994         6.54485897E-18
   67.4700012         6.55390337E-18
   67.6125031         6.56020814E-18
   67.7549973         6.56299326E-18
   67.8974991         6.56217145E-18
   68.0400009         6.55837593E-18
   68.1825027         6.55283672E-18
   68.3249969         6.54712793E-18
   68.4674988         6.54283486E-18
   68.6100006         6.54121442E-18
   68.7525024         6.54293330E-18
   68.8949966         6.54793567E-18
   69.0374985         6.55548039E-18
   69.1800003         6.56431426E-18
   69.3225021         6.57294672E-18
   69.4649963         6.57995253E-18
   69.6074982         6.58425014E-18
   69.7500000         6.58529404E-18
   69.8925018         6.58317646E-18
   70.0350037         6.57860753E-18
   70.1774979         6.57278625E-18
   70.3199997         6.56717962E-18
   70.4625015         6.56323851E-18
   70.6050034         6.56210362E-18
   70.7474976         6.56436348E-18
   70.8899994         6.56991510E-18
   71.0325012         6.57797722E-18
   71.1750031         6.58725405E-18
   71.3174973         6.59621035E-18
   71.4599991         6.60340103E-18
   71.6025009         6.60776523E-18
   71.7450027         6.60883064E-18
   71.8874969         6.60678296E-18
   72.0299988         6.60239931E-18
   72.1725006         6.59687871E-18
   72.3150024         6.59160130E-18
   72.4574966         6.58786782E-18
   72.5999985         6.58665558E-18
   72.7425003         6.58843278E-18
   72.8850021         6.59305920E-18
   73.0274963         6.59980072E-18
   73.1699982         6.60746497E-18
   73.3125000         6.61463786E-18
   73.4550018         6.61998517E-18
   73.5975037         6.62254447E-18
   73.7399979         6.62193980E-18
   73.8824997         6.61846399E-18
   74.0250015         6.61301039E-18
   74.1675034         6.60686691E-18
   74.3099976         6.60143813E-18
   74.4524994         6.59795322E-18
   74.5950012         6.59722695E-18
   74.7375031         6.59951452E-18
   74.8799973         6.60447760E-18
   75.0224991         6.61125511E-18
   75.1650009         6.61862777E-18
   75.3075027         6.62524480E-18
   75.4499969         6.62988073E-18
   75.5924988         6.63168812E-18
   75.7350006         6.63038159E-18
   75.8775024         6.62632551E-18
   76.0199966         6.62048024E-18
   76.1624985         6.61421517E-18
   76.3050003         6.60901965E-18
   76.4475021         6.60618532E-18
   76.5899963         6.60653108E-18
   76.7324982         6.61024140E-18
   76.8750000         6.61684313E-18
   77.0175018         6.62532669E-18
   77.1600037         6.63436323E-18
   77.3024979         6.64257217E-18
   77.4449997         6.64878222E-18
   77.5875015         6.65224232E-18
   77.7300034         6.65275435E-18
   77.8724976         6.65071204E-18
   78.0149994         6.64703356E-18
   78.1575012         6.64298782E-18
   78.3000031         6.63995248E-18
   78.4424973         6.63912117E-18
   78.5849991         6.64124413E-18
   78.7275009         6.64645082E-18
   78.8700027         6.65420812E-18
   79.0124969         6.66343325E-18
   79.1549988         6.67272910E-18
   79.2975006         6.68068575E-18
   79.4400024         6.68617699E-18
   79.5824966         6.68858119E-18
   79.7249985         6.68788305E-18
   79.8675003         6.68465457E-18
   80.0100021         6.67992516E-18
   80.1524963         6.67497531E-18
   80.2949982         6.67109749E-18
   80.4375000         6.66934883E-18
   80.5800018         6.67034848E-18
   80.7225037         6.67414234E-18
   80.8649979         6.68017497E-18
   81.0074997         6.68738840E-18
   81.1500015         6.69442564E-18
   81.2925034         6.69992308E-18
   81.4349976         6.70280415E-18
   81.5774994         6.70252125E-18
   81.7200012         6.69916869E-18
   81.8625031         6.69345535E-18
   82.0049973         6.68653351E-18
   82.1474991         6.67974525E-18
   82.2900009         6.67434665E-18
   82.4325027         6.67126251E-18
   82.5749969         6.67092006E-18
   82.7174988         6.67318323E-18
   82.8600006         6.67738778E-18
   83.0025024         6.68246667E-18
   83.1449966         6.68715017E-18
   83.2874985         6.69021198E-18
   83.4300003         6.69072235E-18
   83.5725021         6.68825818E-18
   83.7149963         6.68301551E-18
   83.8574982         6.67579629E-18
   84.0000000         6.66785081E-18
   84.1425018         6.66061422E-18
   84.2850037         6.65539926E-18
   84.4274979         6.65311913E-18
   84.5699997         6.65410637E-18
   84.7125015         6.65806526E-18
   84.8550034         6.66415124E-18
   84.9974976         6.67116201E-18
   85.1399994         6.67777242E-18
   85.2825012         6.68278266E-18