  -30.00000        9.8404491E-18
  -29.85750        9.8575114E-18
  -29.71500        9.8833467E-18
  -29.57250        9.9064250E-18
  -29.43000        9.9186384E-18
  -29.28750        9.9198287E-18
  -29.14500        9.9174952E-18
  -29.00250        9.9219024E-18
  -28.86000        9.9395578E-18
  -28.71750        9.9690261E-18
  -28.57500        1.0001579E-17
  -28.43250        1.0026314E-17
  -28.29000        1.0036637E-17
  -28.14750        1.0034205E-17
  -28.00500        1.0027964E-17
  -27.86250        1.0028840E-17
  -27.72000        1.0043282E-17
  -27.57750        1.0069506E-17
  -27.43500        1.0098687E-17
  -27.29250        1.0120337E-17
  -27.15000        1.0128631E-17
  -27.00750        1.0125850E-17
  -26.86500        1.0120925E-17
  -26.72250        1.0123965E-17
  -26.58000        1.0140108E-17
  -26.43750        1.0166419E-17
  -26.29500        1.0193692E-17
  -26.15250        1.0212048E-17
  -26.01000        1.0216924E-17
  -25.86750        1.0211842E-17
  -25.72500        1.0206276E-17
  -25.58250        1.0209910E-17
  -25.44000        1.0226794E-17
  -25.29750        1.0252895E-17
  -25.15500        1.0278561E-17
  -25.01250        1.0294348E-17
  -24.87000        1.0296734E-17
  -24.72750        1.0290215E-17
  -24.58500        1.0284560E-17
  -24.44250        1.0288874E-17
  -24.30000        1.0306096E-17
  -24.15750        1.0331251E-17
  -24.01500        1.0354524E-17
  -23.87250        1.0367274E-17
  -23.73000        1.0367342E-17
  -23.58750        1.0360403E-17
  -23.44500        1.0356540E-17
  -23.30250        1.0364101E-17
  -23.16000        1.0384559E-17
  -23.01750        1.0411521E-17
  -22.87500        1.0434486E-17
  -22.73250        1.0445124E-17
  -22.59000        1.0442281E-17
  -22.44750        1.0432669E-17
  -22.30500        1.0426835E-17
  -22.16250        1.0432808E-17
  -22.02000        1.0451279E-17
  -21.87750        1.0475213E-17
  -21.73500        1.0494144E-17
  -21.59250        1.0500558E-17
  -21.45000        1.0494498E-17
  -21.30750        1.0483588E-17
  -21.16500        1.0478439E-17
  -21.02250        1.0486200E-17
  -20.88000        1.0506135E-17
  -20.73750        1.0529932E-17
  -20.59500        1.0546586E-17
  -20.45250        1.0548950E-17
  -20.31000        1.0538030E-17
  -20.16750        1.0522444E-17
  -20.02500        1.0513340E-17
  -19.88250        1.0517847E-17
  -19.74000        1.0534946E-17
  -19.59750        1.0556245E-17
  -19.45500        1.0571183E-17
  -19.31250        1.0573490E-17
  -19.17000        1.0565037E-17
  -19.02750        1.0554718E-17
  -18.88500        1.0553051E-17
  -18.74250        1.0565730E-17
  -18.60000        1.0590019E-17
  -18.45750        1.0616172E-17
  -18.31500        1.0633042E-17
  -18.17250        1.0634551E-17
  -18.03000        1.0623144E-17
  -17.88750        1.0608202E-17
  -17.74500        1.0600377E-17
  -17.60250        1.0605272E-17
  -17.46000        1.0620250E-17
  -17.31750        1.0636252E-17
  -17.17500        1.0643507E-17
  -17.03250        1.0637647E-17
  -16.89000        1.0622524E-17
  -16.74750        1.0608045E-17
  -16.60500        1.0604310E-17
  -16.46250        1.0615600E-17
  -16.32000        1.0637826E-17
  -16.17750        1.0660972E-17
  -16.03500        1.0675038E-17
  -15.89250        1.0675930E-17
  -15.75000        1.0667744E-17
  -15.60750        1.0660104E-17
  -15.46500        1.0662220E-17
  -15.32250        1.0677233E-17
  -15.18000        1.0700300E-17
  -15.03750        1.0721531E-17
  -14.89500        1.0731989E-17
  -14.75250        1.0729100E-17
  -14.61000        1.0718195E-17
  -14.46750        1.0709261E-17
  -14.32500        1.0710866E-17
  -14.18250        1.0724964E-17
  -14.04000        1.0745715E-17
  -13.89750        1.0763041E-17
  -13.75500        1.0768763E-17
  -13.61250        1.0761597E-17
  -13.47000        1.0747970E-17
  -13.32750        1.0738189E-17
  -13.18500        1.0740236E-17
  -13.04250        1.0754995E-17
  -12.90000        1.0775758E-17
  -12.75750        1.0792339E-17
  -12.61500        1.0797273E-17
  -12.47250        1.0790357E-17
  -12.33000        1.0778759E-17
  -12.18750        1.0772625E-17
  -12.04500        1.0778852E-17
  -11.90250        1.0796801E-17
  -11.76000        1.0818585E-17
  -11.61750        1.0833771E-17
  -11.47500        1.0835686E-17
  -11.33250        1.0825511E-17
  -11.19000        1.0811661E-17
  -11.04750        1.0804817E-17
  -10.90500        1.0811569E-17
  -10.76250        1.0830495E-17
  -10.62000        1.0853056E-17
  -10.47750        1.0868764E-17
  -10.33500        1.0871498E-17
  -10.19250        1.0863196E-17
  -10.05000        1.0852636E-17
  -9.907500        1.0850078E-17
  -9.765000        1.0860971E-17
  -9.622500        1.0882538E-17
  -9.480000        1.0905336E-17
  -9.337500        1.0918857E-17
  -9.195000        1.0917836E-17
  -9.052500        1.0905471E-17
  -8.910000        1.0891595E-17
  -8.767500        1.0886886E-17
  -8.625000        1.0896566E-17
  -8.482500        1.0917362E-17
  -8.340000        1.0939523E-17
  -8.197500        1.0952698E-17
  -8.055000        1.0952114E-17
  -7.912500        1.0941361E-17
  -7.770000        1.0930130E-17
  -7.627500        1.0928267E-17
  -7.485000        1.0939749E-17
  -7.342500        1.0960214E-17
  -7.200000        1.0979533E-17
  -7.057500        1.0987893E-17
  -6.915000        1.0981723E-17
  -6.772500        1.0965921E-17
  -6.630000        1.0951019E-17
  -6.487500        1.0947024E-17
  -6.345000        1.0957583E-17
  -6.202500        1.0977985E-17
  -6.060000        1.0998140E-17
  -5.917500        1.1008730E-17
  -5.775000        1.1006791E-17
  -5.632500        1.0997398E-17
  -5.490000        1.0990448E-17
  -5.347500        1.0994533E-17
  -5.205000        1.1011613E-17
  -5.062500        1.1035722E-17
  -4.920000        1.1056481E-17
  -4.777500        1.1065297E-17
  -4.635000        1.1060496E-17
  -4.492500        1.1048297E-17
  -4.350000        1.1039059E-17
  -4.207500        1.1041060E-17
  -4.065000        1.1055582E-17
  -3.922500        1.1076237E-17
  -3.780000        1.1092935E-17
  -3.637500        1.1098043E-17
  -3.495000        1.1091028E-17
  -3.352500        1.1078743E-17
  -3.210000        1.1071231E-17
  -3.067500        1.1075584E-17
  -2.925000        1.1091601E-17
  -2.782500        1.1111893E-17
  -2.640000        1.1126366E-17
  -2.497500        1.1128372E-17
  -2.355000        1.1118781E-17
  -2.212500        1.1105511E-17
  -2.070000        1.1098773E-17
  -1.927500        1.1104914E-17
  -1.785000        1.1122581E-17
  -1.642500        1.1143533E-17
  -1.500000        1.1157618E-17
  -1.357500        1.1158906E-17
  -1.215000        1.1149267E-17
  -1.072500        1.1137221E-17
 -0.9300000        1.1132739E-17
 -0.7875000        1.1141165E-17
 -0.6450000        1.1159920E-17
 -0.5025000        1.1180027E-17
 -0.3600000        1.1191534E-17
 -0.2175000        1.1189575E-17
 -7.5000003E-02    1.1177402E-17
  6.7500003E-02    1.1164510E-17
  0.2100000        1.1160982E-17
  0.3525000        1.1171427E-17
  0.4950000        1.1192182E-17
  0.6375000        1.1213454E-17
  0.7800000        1.1225167E-17
  0.9225000        1.1222971E-17
   1.065000        1.1210824E-17
   1.207500        1.1198580E-17
   1.350000        1.1196031E-17
   1.492500        1.1207001E-17
   1.635000        1.1227031E-17
   1.777500        1.1246082E-17
   1.920000        1.1254614E-17
   2.062500        1.1249404E-17
   2.205000        1.1235574E-17
   2.347500        1.1223607E-17
   2.490000        1.1223121E-17
   2.632500        1.1237126E-17
   2.775000        1.1260209E-17
   2.917500        1.1281731E-17
   3.060000        1.1292128E-17
   3.202500        1.1288522E-17
   3.345000        1.1276320E-17
   3.487500        1.1265837E-17
   3.630000        1.1266012E-17
   3.772500        1.1279004E-17
   3.915000        1.1298906E-17
   4.057500        1.1315352E-17
   4.200000        1.1319819E-17
   4.342500        1.1310830E-17
   4.485000        1.1294919E-17
   4.627500        1.1282781E-17
   4.770000        1.1282938E-17
   4.912500        1.1296698E-17
   5.055000        1.1317462E-17
   5.197500        1.1334729E-17
   5.340000        1.1340411E-17
   5.482500        1.1333624E-17
   5.625000        1.1321102E-17
   5.767500        1.1313024E-17
   5.910000        1.1316788E-17
   6.052500        1.1332527E-17
   6.195000        1.1353048E-17
   6.337500        1.1368229E-17
   6.480000        1.1371185E-17
   6.622500        1.1362462E-17
   6.765000        1.1349733E-17
   6.907500        1.1343170E-17
   7.050000        1.1349316E-17
   7.192500        1.1367145E-17
   7.335000        1.1388706E-17
   7.477500        1.1403943E-17
   7.620000        1.1406753E-17
   7.762500        1.1398643E-17
   7.905000        1.1387754E-17
   8.047500        1.1383864E-17
   8.190000        1.1392417E-17
   8.332500        1.1411201E-17
   8.475000        1.1431680E-17
   8.617500        1.1444189E-17
   8.760000        1.1443812E-17
   8.902500        1.1433386E-17
   9.045000        1.1421779E-17
   9.187500        1.1418494E-17
   9.330000        1.1427834E-17
   9.472500        1.1446223E-17
   9.615000        1.1464269E-17
   9.757500        1.1472400E-17
   9.900000        1.1466635E-17
   10.04250        1.1451024E-17
   10.18500        1.1435281E-17
   10.32750        1.1428990E-17
   10.47000        1.1435918E-17
   10.61250        1.1451847E-17
   10.75500        1.1467233E-17
   10.89750        1.1473110E-17
   11.04000        1.1466639E-17
   11.18250        1.1452953E-17
   11.32500        1.1442147E-17
   11.46750        1.1443198E-17
   11.61000        1.1458495E-17
   11.75250        1.1482266E-17
   11.89500        1.1503899E-17
   12.03750        1.1514166E-17
   12.18000        1.1510654E-17
   12.32250        1.1499116E-17
   12.46500        1.1489961E-17
   12.60750        1.1491966E-17
   12.75000        1.1506993E-17
   12.89250        1.1528894E-17
   13.03500        1.1547229E-17
   13.17750        1.1553586E-17
   13.32000        1.1546674E-17
   13.46250        1.1533125E-17
   13.60500        1.1523524E-17
   13.74750        1.1526033E-17
   13.89000        1.1541467E-17
   14.03250        1.1562752E-17
   14.17500        1.1579117E-17
   14.31750        1.1582495E-17
   14.46000        1.1572319E-17
   14.60250        1.1555817E-17
   14.74500        1.1543688E-17
   14.88750        1.1543731E-17
   15.03000        1.1556277E-17
   15.17250        1.1574140E-17
   15.31500        1.1587072E-17
   15.45750        1.1588036E-17
   15.60000        1.1577490E-17
   15.74250        1.1563116E-17
   15.88500        1.1555176E-17
   16.02750        1.1560305E-17
   16.17000        1.1577489E-17
   16.31250        1.1598650E-17
   16.45500        1.1613469E-17
   16.59750        1.1615531E-17
   16.74000        1.1606098E-17
   16.88250        1.1593251E-17
   17.02500        1.1586942E-17
   17.16750        1.1592974E-17
   17.31000        1.1609522E-17
   17.45250        1.1628308E-17
   17.59500        1.1639667E-17
   17.73750        1.1638432E-17
   17.88000        1.1627069E-17
   18.02250        1.1614169E-17
   18.16500        1.1609223E-17
   18.30750        1.1616866E-17
   18.45000        1.1634071E-17
   18.59250        1.1652013E-17
   18.73500        1.1661438E-17
   18.87750        1.1658312E-17
   19.02000        1.1646291E-17
   19.16250        1.1634532E-17
   19.30500        1.1632154E-17
   19.44750        1.1642717E-17
   19.59000        1.1662056E-17
   19.73250        1.1680791E-17
   19.87500        1.1689987E-17
   20.01750        1.1686547E-17
   20.16000        1.1675054E-17
   20.30250        1.1664955E-17
   20.44500        1.1664779E-17
   20.58750        1.1676903E-17
   20.73000        1.1696051E-17
   20.87250        1.1712451E-17
   21.01500        1.1717764E-17
   21.15750        1.1710185E-17
   21.30000        1.1695644E-17
   21.44250        1.1684329E-17
   21.58500        1.1684623E-17
   21.72750        1.1698087E-17
   21.87000        1.1718534E-17
   22.01250        1.1735741E-17
   22.15500        1.1741588E-17
   22.29750        1.1734920E-17
   22.44000        1.1722202E-17
   22.58250        1.1713559E-17
   22.72500        1.1716590E-17
   22.86750        1.1731686E-17
   23.01000        1.1751685E-17
   23.15250        1.1766104E-17
   23.29500        1.1767407E-17
   23.43750        1.1755558E-17
   23.58000        1.1738109E-17
   23.72250        1.1725769E-17
   23.86500        1.1726082E-17
   24.00750        1.1739012E-17
   24.15000        1.1757075E-17
   24.29250        1.1769910E-17
   24.43500        1.1770558E-17
   24.57750        1.1759655E-17
   24.72000        1.1745045E-17
   24.86250        1.1737034E-17
   25.00500        1.1742170E-17
   25.14750        1.1759270E-17
   25.29000        1.1780099E-17
   25.43250        1.1794280E-17
   25.57500        1.1795488E-17
   25.71750        1.1785205E-17
   25.86000        1.1771807E-17
   26.00250        1.1765526E-17
   26.14500        1.1772336E-17
   26.28750        1.1790422E-17
   26.43000        1.1811337E-17
   26.57250        1.1825106E-17
   26.71500        1.1826215E-17
   26.85750        1.1816850E-17
   27.00000        1.1805480E-17
   27.14250        1.1801647E-17
   27.28500        1.1810155E-17
   27.42750        1.1828134E-17
   27.57000        1.1846769E-17
   27.71250        1.1856628E-17
   27.85500        1.1853349E-17
   27.99750        1.1840264E-17
   28.14000        1.1826389E-17
   28.28250        1.1821004E-17
   28.42500        1.1828107E-17
   28.56750        1.1844086E-17
   28.71000        1.1860003E-17
   28.85250        1.1867078E-17
   28.99500        1.1862043E-17
   29.13750        1.1849130E-17
   29.28000        1.1837486E-17
   29.42250        1.1835609E-17
   29.56500        1.1846176E-17
   29.70750        1.1864415E-17
   29.85000        1.1880993E-17
   29.99250        1.1887681E-17
   30.13500        1.1882344E-17
   30.27750        1.1870235E-17
   30.42000        1.1860796E-17
   30.56250        1.1861898E-17
   30.70500        1.1875021E-17
   30.84750        1.1894292E-17
   30.99000        1.1909980E-17
   31.13250        1.1914341E-17
   31.27500        1.1906285E-17
   31.41750        1.1892031E-17
   31.56000        1.1881351E-17
   31.70250        1.1881666E-17
   31.84500        1.1893559E-17
   31.98750        1.1910445E-17
   32.13000        1.1922573E-17
   32.27250        1.1922991E-17
   32.41500        1.1911825E-17
   32.55750        1.1896278E-17
   32.70000        1.1886343E-17
   32.84250        1.1888760E-17
   32.98500        1.1902903E-17
   33.12750        1.1921049E-17
   33.27000        1.1932932E-17
   33.41250        1.1931831E-17
   33.55500        1.1918568E-17
   33.69750        1.1901007E-17
   33.84000        1.1889335E-17
   33.98250        1.1889990E-17
   34.12500        1.1901865E-17
   34.26750        1.1917069E-17
   34.41000        1.1925801E-17
   34.55250        1.1922373E-17
   34.69500        1.1908780E-17
   34.83750        1.1893634E-17
   34.98000        1.1887095E-17
   35.12250        1.1894836E-17
   35.26500        1.1914649E-17
   35.40750        1.1937746E-17
   35.55000        1.1953954E-17
   35.69250        1.1957723E-17
   35.83500        1.1951319E-17
   35.97750        1.1943344E-17
   36.12000        1.1943459E-17
   36.26250        1.1956513E-17
   36.40500        1.1979583E-17
   36.54750        1.2003711E-17
   36.69000        1.2019250E-17
   36.83250        1.2021609E-17
   36.97500        1.2013935E-17
   37.11750        1.2005136E-17
   37.26000        1.2004448E-17
   37.40250        1.2015822E-17
   37.54500        1.2035523E-17
   37.68750        1.2054348E-17
   37.83000        1.2063144E-17
   37.97250        1.2058271E-17
   38.11500        1.2043741E-17
   38.25750        1.2028769E-17
   38.40000        1.2022236E-17
   38.54250        1.2027397E-17
   38.68500        1.2040042E-17
   38.82750        1.2051171E-17
   38.97000        1.2052556E-17
   39.11250        1.2041798E-17
   39.25500        1.2023830E-17
   39.39750        1.2007963E-17
   39.54000        1.2002282E-17
   39.68250        1.2008784E-17
   39.82500        1.2022223E-17
   39.96750        1.2033320E-17
   40.11000        1.2034418E-17
   40.25250        1.2024142E-17
   40.39500        1.2008230E-17
   40.53750        1.1996053E-17
   40.68000        1.1994925E-17
   40.82250        1.2005653E-17
   40.96500        1.2022027E-17
   41.10750        1.2034562E-17
   41.25000        1.2036224E-17
   41.39250        1.2026670E-17
   41.53500        1.2012437E-17
   41.67750        1.2002963E-17
   41.82000        1.2004850E-17
   41.96250        1.2017851E-17
   42.10500        1.2035022E-17
   42.24750        1.2046963E-17
   42.39000        1.2047570E-17
   42.53250        1.2037830E-17
   42.67500        1.2025329E-17
   42.81750        1.2019733E-17
   42.96000        1.2026976E-17
   43.10250        1.2045638E-17
   43.24500        1.2067720E-17
   43.38750        1.2083361E-17
   43.53000        1.2086684E-17
   43.67250        1.2079235E-17
   43.81500        1.2068965E-17
   43.95750        1.2065342E-17
   44.10000        1.2073565E-17
   44.24250        1.2091349E-17
   44.38500        1.2110248E-17
   44.52750        1.2120731E-17
   44.67000        1.2117965E-17
   44.81250        1.2104803E-17
   44.95500        1.2090187E-17
   45.09750        1.2083880E-17
   45.24000        1.2090691E-17
   45.38250        1.2107637E-17
   45.52500        1.2125754E-17
   45.66750        1.2135473E-17
   45.81000        1.2132329E-17
   45.95250        1.2119590E-17
   46.09500        1.2106237E-17
   46.23750        1.2101519E-17
   46.38000        1.2109356E-17
   46.52250        1.2125957E-17
   46.66500        1.2142088E-17
   46.80750        1.2148611E-17
   46.95000        1.2141978E-17
   47.09250        1.2126380E-17
   47.23500        1.2111258E-17
   47.37750        1.2105695E-17
   47.52000        1.2113034E-17
   47.66250        1.2128963E-17
   47.80500        1.2144180E-17
   47.94750        1.2150034E-17
   48.09000        1.2143719E-17
   48.23250        1.2129933E-17
   48.37500        1.2118000E-17
   48.51750        1.2116231E-17
   48.66000        1.2126920E-17
   48.80250        1.2144984E-17
   48.94500        1.2161061E-17
   49.08750        1.2167160E-17
   49.23000        1.2161462E-17
   49.37250        1.2149372E-17
   49.51500        1.2140206E-17
   49.65750        1.2141527E-17
   49.80000        1.2154557E-17
   49.94250        1.2173431E-17
   50.08500        1.2188733E-17
   50.22750        1.2193160E-17
   50.37000        1.2185892E-17
   50.51250        1.2173030E-17
   50.65500        1.2163857E-17
   50.79750        1.2165201E-17
   50.94000        1.2177309E-17
   51.08250        1.2193732E-17
   51.22500        1.2205293E-17
   51.36750        1.2205688E-17
   51.51000        1.2195354E-17
   51.65250        1.2181222E-17
   51.79500        1.2172515E-17
   51.93750        1.2175129E-17
   52.08000        1.2188012E-17
   52.22250        1.2203744E-17
   52.36500        1.2212988E-17
   52.50750        1.2210117E-17
   52.65000        1.2196637E-17
   52.79250        1.2180302E-17
   52.93500        1.2170478E-17
   53.07750        1.2172529E-17
   53.22000        1.2184633E-17
   53.36250        1.2198962E-17
   53.50500        1.2206494E-17
   53.64750        1.2202579E-17
   53.79000        1.2189841E-17
   53.93250        1.2176675E-17
   54.07500        1.2172192E-17
   54.21750        1.2180671E-17
   54.36000        1.2198872E-17
   54.50250        1.2217841E-17
   54.64500        1.2228171E-17
   54.78750        1.2225562E-17
   54.93000        1.2213342E-17
   55.07250        1.2200444E-17
   55.21500        1.2196027E-17
   55.35750        1.2203995E-17
   55.50000        1.2220689E-17
   55.64250        1.2237156E-17
   55.78500        1.2244616E-17
   55.92750        1.2239843E-17
   56.07000        1.2227195E-17
   56.21250        1.2216072E-17
   56.35500        1.2215296E-17
   56.49750        1.2227792E-17
   56.64000        1.2248763E-17
   56.78250        1.2268467E-17
   56.92500        1.2277943E-17
   57.06750        1.2274263E-17
   57.21000        1.2262182E-17
   57.35250        1.2251203E-17
   57.49500        1.2249838E-17
   57.63750        1.2260499E-17
   57.78000        1.2278102E-17
   57.92250        1.2293167E-17
   58.06500        1.2297564E-17
   58.20750        1.2289421E-17
   58.35000        1.2274250E-17
   58.49250        1.2261623E-17
   58.63500        1.2259411E-17
   58.77750        1.2269056E-17
   58.92000        1.2284721E-17
   59.06250        1.2296834E-17
   59.20500        1.2297861E-17
   59.34750        1.2286866E-17
   59.49000        1.2270094E-17
   59.63250        1.2257265E-17
   59.77500        1.2255807E-17
   59.91750        1.2266490E-17
   60.06000        1.2283088E-17
   60.20250        1.2296218E-17
   60.34500        1.2299031E-17
   60.48750        1.2291288E-17
   60.63000        1.2279385E-17
   60.77250        1.2272339E-17
   60.91500        1.2276178E-17
   61.05750        1.2290171E-17
   61.20000        1.2307177E-17
   61.34250        1.2317926E-17
   61.48500        1.2316626E-17
   61.62750        1.2304507E-17
   61.77000        1.2289164E-17
   61.91250        1.2280072E-17
   62.05500        1.2282983E-17
   62.19750        1.2296582E-17
   62.34000        1.2313406E-17
   62.48250        1.2324443E-17
   62.62500        1.2324610E-17
   62.76750        1.2315799E-17
   62.91000        1.2305623E-17
   63.05250        1.2302643E-17
   63.19500        1.2310996E-17
   63.33750        1.2327684E-17
   63.48000        1.2344233E-17
   63.62250        1.2351717E-17
   63.76500        1.2346148E-17
   63.90750        1.2330949E-17
   64.05000        1.2315004E-17
   64.19250        1.2307422E-17
   64.33500        1.2312171E-17
   64.47750        1.2325784E-17
   64.62000        1.2339545E-17
   64.76250        1.2344814E-17
   64.90500        1.2338298E-17
   65.04750        1.2324056E-17
   65.19000        1.2311040E-17
   65.33250        1.2307640E-17
   65.47500        1.2316537E-17
   65.61750        1.2332992E-17
   65.76000        1.2347625E-17
   65.90250        1.2352045E-17
   66.04500        1.2343948E-17
   66.18750        1.2328600E-17
   66.33000        1.2315793E-17
   66.47250        1.2314076E-17
   66.61500        1.2325702E-17
   66.75750        1.2345317E-17
   66.90000        1.2363189E-17
   67.04250        1.2371012E-17
   67.18500        1.2366839E-17
   67.32750        1.2356157E-17
   67.47000        1.2348484E-17
   67.61250        1.2351551E-17
   67.75500        1.2366554E-17
   67.89750        1.2387361E-17
   68.04000        1.2404138E-17
   68.18250        1.2409228E-17
   68.32500        1.2401734E-17
   68.46750        1.2388064E-17
   68.61000        1.2378096E-17
   68.75250        1.2379263E-17
   68.89500        1.2392109E-17
   69.03750        1.2409962E-17
   69.18000        1.2422929E-17
   69.32250        1.2423779E-17
   69.46500        1.2412216E-17
   69.60750        1.2394981E-17
   69.75000        1.2381756E-17
   69.89250        1.2379362E-17
   70.03500        1.2387755E-17
   70.17750        1.2400221E-17
   70.32000        1.2407611E-17
   70.46250        1.2404052E-17
   70.60500        1.2390649E-17
   70.74750        1.2374938E-17
   70.89000        1.2366423E-17
   71.03250        1.2370876E-17
   71.17500        1.2386840E-17
   71.31750        1.2406444E-17
   71.46000        1.2420025E-17
   71.60250        1.2421770E-17
   71.74500        1.2413000E-17
   71.88750        1.2401136E-17
   72.03000        1.2395024E-17
   72.17250        1.2399464E-17
   72.31500        1.2412288E-17
   72.45750        1.2425749E-17
   72.60000        1.2431347E-17
   72.74250        1.2425161E-17
   72.88500        1.2410417E-17
   73.02750        1.2395698E-17
   73.17000        1.2389864E-17
   73.31250        1.2396747E-17
   73.45500        1.2412810E-17
   73.59750        1.2429213E-17
   73.74000        1.2437044E-17
   73.88250        1.2432568E-17
   74.02500        1.2419327E-17
   74.16750        1.2405851E-17
   74.31000        1.2400368E-17
   74.45250        1.2405749E-17
   74.59500        1.2417749E-17
   74.73750        1.2427633E-17
   74.88000        1.2427596E-17
   75.02250        1.2415685E-17
   75.16500        1.2397197E-17
   75.30750        1.2381690E-17
   75.45000        1.2377354E-17
   75.59250        1.2386126E-17
   75.73500        1.2402502E-17
   75.87750        1.2416796E-17
   76.02000        1.2420888E-17
   76.16250        1.2413033E-17
   76.30500        1.2398842E-17
   76.44750        1.2387840E-17
   76.59000        1.2387692E-17
   76.73250        1.2399556E-17
   76.87500        1.2417397E-17
   77.01750        1.2431649E-17
   77.16000        1.2435040E-17
   77.30250        1.2427058E-17
   77.44500        1.2414324E-17
   77.58750        1.2406657E-17
   77.73000        1.2411142E-17
   77.87250        1.2427793E-17
   78.01500        1.2449405E-17
   78.15750        1.2465712E-17
   78.30000        1.2469384E-17
   78.44250        1.2460267E-17
   78.58500        1.2445369E-17
   78.72750        1.2434586E-17
   78.87000        1.2434775E-17
   79.01250        1.2445715E-17
   79.15500        1.2460372E-17
   79.29750        1.2469275E-17
   79.44000        1.2466364E-17
   79.58250        1.2452741E-17
   79.72500        1.2436096E-17
   79.86750        1.2426111E-17
   80.01000        1.2428651E-17
   80.15250        1.2442202E-17
   80.29500        1.2458731E-17
   80.43750        1.2468438E-17
   80.58000        1.2465556E-17
   80.72250        1.2451720E-17
   80.86500        1.2434920E-17
   81.00750        1.2424679E-17
   81.15000        1.2426381E-17
   81.29250        1.2438162E-17
   81.43500        1.2452188E-17
   81.57750        1.2459530E-17
   81.72000        1.2455639E-17
   81.86250        1.2443103E-17
   82.00500        1.2430022E-17
   82.14750        1.2425011E-17
   82.29000        1.2431846E-17
   82.43250        1.2447051E-17
   82.57500        1.2461870E-17
   82.71750        1.2467464E-17
   82.86000        1.2460190E-17
   83.00250        1.2443790E-17
   83.14500        1.2427176E-17
   83.28750        1.2419144E-17
   83.43000        1.2423225E-17
   83.57250        1.2435753E-17
   83.71500        1.2448307E-17
   83.85750        1.2452988E-17
   84.00000        1.2447330E-17
   84.14250        1.2435826E-17
   84.28500        1.2427150E-17
   84.42750        1.2428757E-17
   84.57000        1.2442158E-17
   84.71250        1.2461775E-17
   84.85500        1.2478100E-17
   84.99750        1.2483290E-17
   85.14000        1.2475835E-17
   85.28250        1.2461466E-17
   85.42500        1.2449753E-17
   85.56750        1.2448415E-17
   85.71000        1.2458774E-17
   85.85250        1.2475078E-17
   85.99500        1.2488095E-17
   86.13750        1.2490779E-17
   86.28000        1.2482600E-17
   86.42250        1.2469860E-17
   86.56500        1.2461842E-17
   86.70750        1.2465066E-17
   86.85000        1.2479186E-17
   86.99250        1.2497007E-17
   87.13500        1.2508678E-17
   87.27750        1.2507552E-17
   87.42000        1.2494207E-17
   87.56250        1.2476201E-17
   87.70500        1.2463667E-17
   87.84750        1.2463396E-17
   87.99000        1.2474909E-17
   88.13250        1.2490886E-17
   88.27500        1.2501651E-17
   88.41750        1.2501033E-17
   88.56000        1.2490038E-17
   88.70250        1.2476164E-17
   88.84500        1.2468747E-17
   88.98750        1.2473185E-17
   89.13000        1.2487513E-17
   89.27250        1.2503433E-17
   89.41500        1.2511194E-17
   89.55750        1.2505407E-17
   89.70000        1.2488311E-17
   89.84250        1.2468536E-17
   89.98500        1.2456080E-17
   90.12750        1.2456523E-17
   90.27000        1.2467900E-17
   90.41250        1.2482094E-17
   90.55500        1.2489865E-17
   90.69750        1.2486463E-17
   90.84000        1.2474459E-17
   90.98250        1.2462106E-17
   91.12500        1.2458238E-17
   91.26750        1.2466826E-17
   91.41000        1.2484479E-17
   91.55250        1.2502400E-17
   91.69500        1.2511620E-17
   91.83750        1.2508355E-17
   91.98000        1.2496248E-17
   92.12250        1.2484161E-17
   92.26500        1.2480857E-17
   92.40750        1.2489756E-17
   92.55000        1.2506946E-17
   92.69250        1.2523573E-17
   92.83500        1.2531192E-17
   92.97750        1.2526799E-17
   93.12000        1.2514526E-17
   93.26250        1.2503006E-17
   93.40500        1.2500032E-17
   93.54750        1.2507767E-17
   93.69000        1.2521436E-17
   93.83250        1.2532278E-17
   93.97500        1.2532960E-17
   94.11750        1.2522171E-17
   94.26000        1.2505574E-17
   94.40250        1.2492528E-17
   94.54500        1.2490548E-17
   94.68750        1.2500829E-17
   94.83000        1.2517546E-17
   94.97250        1.2531351E-17
   95.11500        1.2534939E-17
   95.25750        1.2527341E-17
   95.40000        1.2514340E-17
   95.54250        1.2504791E-17
   95.68500        1.2505092E-17
   95.82750        1.2515183E-17
   95.97000        1.2528530E-17
   96.11250        1.2536107E-17
   96.25500        1.2531994E-17
   96.39750        1.2517156E-17
   96.54000        1.2499105E-17
   96.68250        1.2487586E-17
   96.82500        1.2488855E-17
   96.96750        1.2501985E-17
   97.11000        1.2519422E-17
   97.25250        1.2531472E-17
   97.39500        1.2532034E-17
   97.53750        1.2522127E-17
   97.68000        1.2509123E-17
   97.82250        1.2502134E-17
   97.96500        1.2506383E-17
   98.10750        1.2519944E-17
   98.25000        1.2534859E-17
   98.39250        1.2541970E-17
   98.53500        1.2536538E-17
   98.67750        1.2521284E-17
   98.82000        1.2504946E-17
   98.96250        1.2497213E-17
   99.10500        1.2503033E-17
   99.24750        1.2519695E-17
   99.39000        1.2538436E-17