  -30.000000        4.89664411E-18
  -29.857500        4.90199184E-18
  -29.715000        4.91176994E-18
  -29.572500        4.92439065E-18
  -29.430000        4.93790388E-18
  -29.287500        4.95037901E-18
  -29.145000        4.96027292E-18
  -29.002501        4.96671913E-18
  -28.860001        4.96968127E-18
  -28.717501        4.96993521E-18
  -28.575001        4.96889007E-18
  -28.432501        4.96827920E-18
  -28.290001        4.96979376E-18
  -28.147499        4.97472252E-18
  -28.004999        4.98367096E-18
  -27.862499        4.99642733E-18
  -27.719999        5.01199114E-18
  -27.577499        5.02876471E-18
  -27.434999        5.04486702E-18
  -27.292500        5.05850640E-18
  -27.150000        5.06834324E-18
  -27.007500        5.07375631E-18
  -26.865000        5.07496812E-18
  -26.722500        5.07300481E-18
  -26.580000        5.06949012E-18
  -26.437500        5.06632491E-18
  -26.295000        5.06530914E-18
  -26.152500        5.06778985E-18
  -26.010000        5.07439530E-18
  -25.867500        5.08492035E-18
  -25.725000        5.09837361E-18
  -25.582500        5.11318015E-18
  -25.440001        5.12750485E-18
  -25.297501        5.13962304E-18
  -25.155001        5.14826832E-18
  -25.012501        5.15288771E-18
  -24.870001        5.15375087E-18
  -24.727501        5.15189013E-18
  -24.584999        5.14888953E-18
  -24.442499        5.14655771E-18
  -24.299999        5.14656143E-18
  -24.157499        5.15007943E-18
  -24.014999        5.15756831E-18
  -23.872499        5.16866618E-18
  -23.730000        5.18226917E-18
  -23.587500        5.19675517E-18
  -23.445000        5.21031307E-18
  -23.302500        5.22130796E-18
  -23.160000        5.22861362E-18
  -23.017500        5.23183879E-18
  -22.875000        5.23141155E-18
  -22.732500        5.22848954E-18
  -22.590000        5.22473042E-18
  -22.447500        5.22195522E-18
  -22.305000        5.22178317E-18
  -22.162500        5.22529828E-18
  -22.020000        5.23283224E-18
  -21.877501        5.24389619E-18
  -21.735001        5.25727997E-18
  -21.592501        5.27129944E-18
  -21.450001        5.28413770E-18
  -21.307501        5.29421566E-18
  -21.165001        5.30051009E-18
  -21.022499        5.30275671E-18
  -20.879999        5.30150518E-18
  -20.737499        5.29800166E-18
  -20.594999        5.29393441E-18
  -20.452499        5.29109057E-18
  -20.309999        5.29099213E-18
  -20.167500        5.29458665E-18
  -20.025000        5.30205360E-18
  -19.882500        5.31276601E-18
  -19.740000        5.32542104E-18
  -19.597500        5.33830645E-18
  -19.455000        5.34965578E-18
  -19.312500        5.35801610E-18
  -19.170000        5.36255442E-18
  -19.027500        5.36323602E-18
  -18.885000        5.36083761E-18
  -18.742500        5.35679766E-18
  -18.600000        5.35292439E-18
  -18.457500        5.35102807E-18
  -18.315001        5.35255133E-18
  -18.172501        5.35827087E-18
  -18.030001        5.36812797E-18
  -17.887501        5.38122927E-18
  -17.745001        5.39600933E-18
  -17.602501        5.41053462E-18
  -17.459999        5.42287698E-18
  -17.317499        5.43149662E-18
  -17.174999        5.43554567E-18
  -17.032499        5.43503943E-18
  -16.889999        5.43085514E-18
  -16.747499        5.42456195E-18
  -16.605000        5.41810580E-18
  -16.462500        5.41342892E-18
  -16.320000        5.41208393E-18
  -16.177500        5.41493108E-18
  -16.035000        5.42197618E-18
  -15.892500        5.43238129E-18
  -15.750000        5.44464217E-18
  -15.607500        5.45689520E-18
  -15.465000        5.46729617E-18
  -15.322500        5.47439090E-18
  -15.180000        5.47740556E-18
  -15.037500        5.47639929E-18
  -14.895000        5.47224767E-18
  -14.752500        5.46646154E-18
  -14.610000        5.46087766E-18
  -14.467500        5.45728149E-18
  -14.325000        5.45703499E-18
  -14.182500        5.46079784E-18
  -14.040000        5.46838432E-18
  -13.897500        5.47879729E-18
  -13.755000        5.49042827E-18
  -13.612500        5.50137849E-18
  -13.470000        5.50984220E-18
  -13.327500        5.51446862E-18
  -13.185000        5.51463571E-18
  -13.042500        5.51057674E-18
  -12.900000        5.50333849E-18
  -12.757500        5.49457824E-18
  -12.615000        5.48624729E-18
  -12.472500        5.48020846E-18
  -12.330000        5.47787870E-18
  -12.187500        5.47995782E-18
  -12.045000        5.48630147E-18
  -11.902500        5.49596294E-18
  -11.760000        5.50739912E-18
  -11.617500        5.51879230E-18
  -11.475000        5.52842812E-18
  -11.332500        5.53504764E-18
  -11.190000        5.53809993E-18
  -11.047500        5.53784971E-18
  -10.905000        5.53531151E-18
  -10.762500        5.53202967E-18
  -10.620000        5.52975037E-18
  -10.477500        5.53005271E-18
  -10.335000        5.53400952E-18
  -10.192500        5.54195046E-18
  -10.050000        5.55337010E-18
  -9.9075003        5.56700369E-18
  -9.7650003        5.58105501E-18
  -9.6225004        5.59353634E-18
  -9.4799995        5.60264773E-18
  -9.3374996        5.60713188E-18
  -9.1949997        5.60651976E-18
  -9.0524998        5.60122663E-18
  -8.9099998        5.59247134E-18
  -8.7674999        5.58203935E-18
  -8.6250000        5.57193576E-18
  -8.4825001        5.56399937E-18
  -8.3400002        5.55955989E-18
  -8.1975002        5.55919635E-18
  -8.0550003        5.56265479E-18
  -7.9124999        5.56892689E-18
  -7.7700000        5.57648070E-18
  -7.6275001        5.58358453E-18
  -7.4850001        5.58867169E-18
  -7.3425002        5.59066395E-18
  -7.1999998        5.58919860E-18
  -7.0574999        5.58469998E-18
  -6.9150000        5.57829926E-18
  -6.7725000        5.57159992E-18
  -6.6300001        5.56634732E-18
  -6.4875002        5.56406472E-18
  -6.3449998        5.56573645E-18
  -6.2024999        5.57159868E-18
  -6.0599999        5.58108685E-18
  -5.9175000        5.59294821E-18
  -5.7750001        5.60548992E-18
  -5.6325002        5.61692156E-18
  -5.4899998        5.62570787E-18
  -5.3474998        5.63086948E-18
  -5.2049999        5.63216815E-18
  -5.0625000        5.63014694E-18
  -4.9200001        5.62600690E-18
  -4.7775002        5.62136269E-18
  -4.6350002        5.61790094E-18
  -4.4924998        5.61703695E-18
  -4.3499999        5.61961651E-18
  -4.2075000        5.62573476E-18
  -4.0650001        5.63471711E-18
  -3.9224999        5.64525374E-18
  -3.7800000        5.65567042E-18
  -3.6375000        5.66428427E-18
  -3.4949999        5.66975524E-18
  -3.3525000        5.67137279E-18
  -3.2100000        5.66921178E-18
  -3.0675001        5.66412710E-18
  -2.9250000        5.65758783E-18
  -2.7825000        5.65139018E-18
  -2.6400001        5.64729935E-18
  -2.4974999        5.64669841E-18
  -2.3550000        5.65030740E-18
  -2.2125001        5.65803037E-18
  -2.0699999        5.66896321E-18
  -1.9275000        5.68156159E-18
  -1.7850000        5.69393786E-18
  -1.6425000        5.70423254E-18
  -1.5000000        5.71098192E-18
  -1.3575000        5.71341176E-18
  -1.2150000        5.71158907E-18
  -1.0725000        5.70640596E-18
 -0.93000001        5.69939767E-18
 -0.78750002        5.69242661E-18
 -0.64499998        5.68731091E-18
 -0.50250000        5.68546009E-18
 -0.36000001        5.68759835E-18
 -0.21750000        5.69362809E-18
 -7.50000030E-02    5.70265387E-18
  6.75000027E-02    5.71316775E-18
  0.20999999        5.72334910E-18
  0.35249999        5.73142941E-18
  0.49500000        5.73604673E-18
  0.63749999        5.73652402E-18
  0.77999997        5.73300809E-18
  0.92250001        5.72644399E-18
   1.0650001        5.71839098E-18
   1.2075000        5.71070440E-18
   1.3500000        5.70516395E-18
   1.4924999        5.70311212E-18
   1.6350000        5.70518628E-18
   1.7775000        5.71120195E-18
   1.9200000        5.72019589E-18
   2.0625000        5.73063201E-18
   2.2049999        5.74071658E-18
   2.3475001        5.74875967E-18
   2.4900000        5.75351100E-18
   2.6324999        5.75440684E-18
   2.7750001        5.75167879E-18
   2.9175000        5.74630832E-18
   3.0599999        5.73982612E-18
   3.2025001        5.73400691E-18
   3.3450000        5.73051083E-18
   3.4875000        5.73054226E-18
   3.6300001        5.73460413E-18
   3.7725000        5.74239369E-18
   3.9150000        5.75286538E-18
   4.0574999        5.76445088E-18
   4.1999998        5.77538124E-18
   4.3425002        5.78405547E-18
   4.4850001        5.78936432E-18
   4.6275001        5.79091404E-18
   4.7700000        5.78909590E-18
   4.9124999        5.78500094E-18
   5.0549998        5.78019254E-18
   5.1975002        5.77638792E-18
   5.3400002        5.77510331E-18
   5.4825001        5.77734331E-18
   5.6250000        5.78338504E-18
   5.7674999        5.79270654E-18
   5.9099998        5.80407820E-18
   6.0524998        5.81579522E-18
   6.1950002        5.82601876E-18
   6.3375001        5.83314492E-18
   6.4800000        5.83613683E-18
   6.6224999        5.83474014E-18
   6.7649999        5.82954172E-18
   6.9074998        5.82185969E-18
   7.0500002        5.81348283E-18
   7.1925001        5.80632648E-18
   7.3350000        5.80205864E-18
   7.4775000        5.80178733E-18
   7.6199999        5.80585499E-18
   7.7624998        5.81378682E-18
   7.9050002        5.82438880E-18
   8.0474997        5.83599373E-18
   8.1899996        5.84678761E-18
   8.3325005        5.85517067E-18
   8.4750004        5.86007213E-18
   8.6175003        5.86116070E-18
   8.7600002        5.85890001E-18
   8.9025002        5.85444192E-18
   9.0450001        5.84937379E-18
   9.1875000        5.84538099E-18
   9.3299999        5.84388338E-18
   9.4724998        5.84573957E-18
   9.6149998        5.85106703E-18
   9.7574997        5.85922303E-18
   9.8999996        5.86893785E-18
   10.042500        5.87857533E-18
   10.185000        5.88646539E-18
   10.327500        5.89124112E-18
   10.470000        5.89211835E-18
   10.612500        5.88905985E-18
   10.755000        5.88279354E-18
   10.897500        5.87468221E-18
   11.040000        5.86645548E-18
   11.182500        5.85987112E-18
   11.325000        5.85636057E-18
   11.467500        5.85674024E-18
   11.610000        5.86104903E-18
   11.752500        5.86854577E-18
   11.895000        5.87787430E-18
   12.037500        5.88735254E-18
   12.180000        5.89532574E-18
   12.322500        5.90050802E-18
   12.465000        5.90224634E-18
   12.607500        5.90064947E-18
   12.750000        5.89656196E-18
   12.892500        5.89139498E-18
   13.035000        5.88684093E-18
   13.177500        5.88452896E-18
   13.320000        5.88569074E-18
   13.462500        5.89089370E-18
   13.605000        5.89990997E-18
   13.747500        5.91173535E-18
   13.890000        5.92477378E-18
   14.032500        5.93714882E-18
   14.175000        5.94707664E-18
   14.317500        5.95322879E-18
   14.460000        5.95500227E-18
   14.602500        5.95264026E-18
   14.745000        5.94718252E-18
   14.887500        5.94025695E-18
   15.030000        5.93375365E-18
   15.172500        5.92945645E-18
   15.315000        5.92869751E-18
   15.457500        5.93210384E-18
   15.600000        5.93947774E-18
   15.742500        5.94983942E-18
   15.885000        5.96161889E-18
   16.027500        5.97296202E-18
   16.170000        5.98209823E-18
   16.312500        5.98769824E-18
   16.455000        5.98913919E-18
   16.597500        5.98663614E-18
   16.740000        5.98119494E-18
   16.882500        5.97440255E-18
   17.025000        5.96810274E-18
   17.167500        5.96401151E-18
   17.309999        5.96337334E-18
   17.452499        5.96671473E-18
   17.594999        5.97374784E-18
   17.737499        5.98343743E-18
   17.879999        5.99421477E-18
   18.022499        6.00429189E-18
   18.165001        6.01201321E-18
   18.307501        6.01618592E-18
   18.450001        6.01631496E-18
   18.592501        6.01270763E-18
   18.735001        6.00641651E-18
   18.877501        5.99903103E-18
   19.020000        5.99236064E-18
   19.162500        5.98806468E-18
   19.305000        5.98731401E-18
   19.447500        5.99055491E-18
   19.590000        5.99742423E-18
   19.732500        6.00683341E-18
   19.875000        6.01720294E-18
   20.017500        6.02679162E-18
   20.160000        6.03405054E-18
   20.302500        6.03793292E-18
   20.445000        6.03809298E-18
   20.587500        6.03495052E-18
   20.730000        6.02960031E-18
   20.872499        6.02358919E-18
   21.014999        6.01861039E-18
   21.157499        6.01615408E-18
   21.299999        6.01720584E-18
   21.442499        6.02203492E-18
   21.584999        6.03012929E-18
   21.727501        6.04029493E-18
   21.870001        6.05089732E-18
   22.012501        6.06020351E-18
   22.155001        6.06673741E-18
   22.297501        6.06958995E-18
   22.440001        6.06859857E-18
   22.582500        6.06437540E-18
   22.725000        6.05817692E-18
   22.867500        6.05164426E-18
   23.010000        6.04647604E-18
   23.152500        6.04408962E-18
   23.295000        6.04534404E-18
   23.437500        6.05036958E-18
   23.580000        6.05853261E-18
   23.722500        6.06855804E-18
   23.865000        6.07877289E-18
   24.007500        6.08744050E-18
   24.150000        6.09311289E-18
   24.292500        6.09493104E-18
   24.434999        6.09280518E-18
   24.577499        6.08743844E-18
   24.719999        6.08018241E-18
   24.862499        6.07275970E-18
   25.004999        6.06691112E-18
   25.147499        6.06404866E-18
   25.290001        6.06498172E-18
   25.432501        6.06976779E-18
   25.575001        6.07771906E-18
   25.717501        6.08754680E-18
   25.860001        6.09762558E-18
   26.002501        6.10631304E-18
   26.145000        6.11227701E-18
   26.287500        6.11476187E-18
   26.430000        6.11374402E-18
   26.572500        6.10994106E-18
   26.715000        6.10466943E-18
   26.857500        6.09957359E-18
   27.000000        6.09628100E-18
   27.142500        6.09605766E-18
   27.285000        6.09953967E-18
   27.427500        6.10659801E-18
   27.570000        6.11636990E-18
   27.712500        6.12743634E-18
   27.855000        6.13811772E-18
   27.997499        6.14681263E-18
   28.139999        6.15231214E-18
   28.282499        6.15403888E-18
   28.424999        6.15215250E-18
   28.567499        6.14751987E-18
   28.709999        6.14154267E-18
   28.852501        6.13588185E-18
   28.995001        6.13212811E-18
   29.137501        6.13147422E-18
   29.280001        6.13446862E-18
   29.422501        6.14089167E-18
   29.565001        6.14979627E-18
   29.707500        6.15970135E-18
   29.850000        6.16890290E-18
   29.992500        6.17582847E-18
   30.135000        6.17936591E-18
   30.277500        6.17908839E-18
   30.420000        6.17533672E-18
   30.562500        6.16914031E-18
   30.705000        6.16200670E-18
   30.847500        6.15561838E-18
   30.990000        6.15150068E-18
   31.132500        6.15072065E-18
   31.275000        6.15367368E-18
   31.417500        6.15999706E-18
   31.559999        6.16863655E-18
   31.702499        6.17804532E-18
   31.844999        6.18649704E-18
   31.987499        6.19243950E-18
   32.130001        6.19482426E-18
   32.272499        6.19333286E-18
   32.415001        6.18845166E-18
   32.557499        6.18137844E-18
   32.700001        6.17377831E-18
   32.842499        6.16744583E-18
   32.985001        6.16394520E-18
   33.127499        6.16430337E-18
   33.270000        6.16881357E-18
   33.412498        6.17698239E-18
   33.555000        6.18762655E-18
   33.697498        6.19909582E-18
   33.840000        6.20958241E-18
   33.982498        6.21746502E-18
   34.125000        6.22161788E-18
   34.267502        6.22163443E-18
   34.410000        6.21790798E-18
   34.552502        6.21155730E-18
   34.695000        6.20419746E-18
   34.837502        6.19761269E-18
   34.980000        6.19339076E-18
   35.122501        6.19260122E-18
   35.264999        6.19559354E-18
   35.407501        6.20194339E-18
   35.549999        6.21056137E-18
   35.692501        6.21993292E-18
   35.834999        6.22843344E-18
   35.977501        6.23465011E-18
   36.119999        6.23766064E-18
   36.262501        6.23720983E-18
   36.404999        6.23375717E-18
   36.547501        6.22838918E-18
   36.689999        6.22260637E-18
   36.832500        6.21802296E-18
   36.974998        6.21604021E-18
   37.117500        6.21755064E-18
   37.259998        6.22274657E-18
   37.402500        6.23107587E-18
   37.544998        6.24135565E-18
   37.687500        6.25202587E-18
   37.830002        6.26147475E-18
   37.972500        6.26838006E-18
   38.115002        6.27197126E-18
   38.257500        6.27217889E-18
   38.400002        6.26963117E-18
   38.542500        6.26551719E-18
   38.685001        6.26133620E-18
   38.827499        6.25859782E-18
   38.970001        6.25851179E-18
   39.112499        6.26174069E-18
   39.255001        6.26825226E-18
   39.397499        6.27730534E-18
   39.540001        6.28758182E-18
   39.682499        6.29744801E-18
   39.825001        6.30528265E-18
   39.967499        6.30982263E-18
   40.110001        6.31043227E-18
   40.252499        6.30724183E-18
   40.395000        6.30112276E-18
   40.537498        6.29350815E-18
   40.680000        6.28609413E-18
   40.822498        6.28049701E-18
   40.965000        6.27793399E-18
   41.107498        6.27898700E-18
   41.250000        6.28349596E-18
   41.392502        6.29059772E-18
   41.535000        6.29888979E-18
   41.677502        6.30670747E-18
   41.820000        6.31244769E-18
   41.962502        6.31489367E-18
   42.105000        6.31347133E-18
   42.247501        6.30838169E-18
   42.389999        6.30057724E-18
   42.532501        6.29158041E-18
   42.674999        6.28318039E-18
   42.817501        6.27707000E-18
   42.959999        6.27450740E-18
   43.102501        6.27607739E-18
   43.244999        6.28158931E-18
   43.387501        6.29014401E-18
   43.529999        6.30032908E-18
   43.672501        6.31051250E-18
   43.814999        6.31915985E-18
   43.957500        6.32512465E-18
   44.099998        6.32785972E-18
   44.242500        6.32751313E-18
   44.384998        6.32488807E-18
   44.527500        6.32127743E-18
   44.669998        6.31819412E-18
   44.812500        6.31705137E-18
   44.955002        6.31885214E-18
   45.097500        6.32396742E-18
   45.240002        6.33204360E-18
   45.382500        6.34207068E-18
   45.525002        6.35259490E-18
   45.667500        6.36202352E-18
   45.810001        6.36895654E-18
   45.952499        6.37246337E-18
   46.095001        6.37225988E-18
   46.237499        6.36875264E-18
   46.380001        6.36294955E-18
   46.522499        6.35625890E-18
   46.665001        6.35022172E-18
   46.807499        6.34621941E-18
   46.950001        6.34520777E-18
   47.092499        6.34753297E-18
   47.235001        6.35285340E-18
   47.377499        6.36020869E-18
   47.520000        6.36821373E-18
   47.662498        6.37534899E-18
   47.805000        6.38029263E-18
   47.947498        6.38220673E-18
   48.090000        6.38092294E-18
   48.232498        6.37697688E-18
   48.375000        6.37149557E-18
   48.517502        6.36595842E-18
   48.660000        6.36188910E-18
   48.802502        6.36055569E-18
   48.945000        6.36271339E-18
   49.087502        6.36845899E-18
   49.230000        6.37719774E-18
   49.372501        6.38774512E-18
   49.514999        6.39853114E-18
   49.657501        6.40788862E-18
   49.799999        6.41436834E-18
   49.942501        6.41702855E-18
   50.084999        6.41563144E-18
   50.227501        6.41070145E-18
   50.369999        6.40343011E-18
   50.512501        6.39543376E-18
   50.654999        6.38842837E-18
   50.797501        6.38388508E-18
   50.939999        6.38274398E-18
   51.082500        6.38525034E-18
   51.224998        6.39093183E-18
   51.367500        6.39871849E-18
   51.509998        6.40717063E-18
   51.652500        6.41476663E-18
   51.794998        6.42019872E-18
   51.937500        6.42262567E-18
   52.080002        6.42184067E-18
   52.222500        6.41831771E-18
   52.365002        6.41312798E-18
   52.507500        6.40772732E-18
   52.650002        6.40366214E-18
   52.792500        6.40224270E-18
   52.935001        6.40426102E-18
   53.077499        6.40982257E-18
   53.220001        6.41832557E-18
   53.362499        6.42859584E-18
   53.505001        6.43913785E-18
   53.647499        6.44844735E-18
   53.790001        6.45530881E-18
   53.932499        6.45902162E-18
   54.075001        6.45951379E-18
   54.217499        6.45733293E-18
   54.360001        6.45352210E-18
   54.502499        6.44940275E-18
   54.645000        6.44630702E-18
   54.787498        6.44530241E-18
   54.930000        6.44696463E-18
   55.072498        6.45124198E-18
   55.215000        6.45744914E-18
   55.357498        6.46440656E-18
   55.500000        6.47069148E-18
   55.642502        6.47495642E-18
   55.785000        6.47623442E-18
   55.927502        6.47416316E-18
   56.070000        6.46906772E-18
   56.212502        6.46189979E-18
   56.355000        6.45404282E-18
   56.497501        6.44703660E-18
   56.639999        6.44227989E-18
   56.782501        6.44076863E-18
   56.924999        6.44291103E-18
   57.067501        6.44845025E-18
   57.209999        6.45650864E-18
   57.352501        6.46574370E-18
   57.494999        6.47459743E-18
   57.637501        6.48160323E-18
   57.779999        6.48568330E-18
   57.922501        6.48637689E-18
   58.064999        6.48394788E-18
   58.207500        6.47933386E-18
   58.349998        6.47394354E-18
   58.492500        6.46935558E-18
   58.634998        6.46698157E-18
   58.777500        6.46777401E-18
   58.919998        6.47203813E-18
   59.062500        6.47938267E-18
   59.205002        6.48880673E-18
   59.347500        6.49889999E-18
   59.490002        6.50810982E-18
   59.632500        6.51503208E-18
   59.775002        6.51867457E-18
   59.917500        6.51865513E-18
   60.060001        6.51528809E-18
   60.202499        6.50953836E-18
   60.345001        6.50284482E-18
   60.487499        6.49683576E-18
   60.630001        6.49299227E-18
   60.772499        6.49234045E-18
   60.915001        6.49523393E-18
   61.057499        6.50128889E-18
   61.200001        6.50948087E-18
   61.342499        6.51837389E-18
   61.485001        6.52642856E-18
   61.627499        6.53231602E-18
   61.770000        6.53518013E-18
   61.912498        6.53479467E-18
   62.055000        6.53160051E-18
   62.197498        6.52662006E-18
   62.340000        6.52126365E-18
   62.482498        6.51705826E-18
   62.625000        6.51534724E-18
   62.767502        6.51700656E-18
   62.910000        6.52224634E-18
   63.052502        6.53054172E-18
   63.195000        6.54071769E-18
   63.337502        6.55118401E-18
   63.480000        6.56026190E-18
   63.622501        6.56653690E-18
   63.764999        6.56914541E-18
   63.907501        6.56794145E-18
   64.050003        6.56350652E-18
   64.192497        6.55701108E-18
   64.334999        6.54996888E-18
   64.477501        6.54393625E-18
   64.620003        6.54021394E-18
   64.762497        6.53960679E-18
   64.904999        6.54226866E-18
   65.047501        6.54767139E-18
   65.190002        6.55470118E-18
   65.332497        6.56187656E-18
   65.474998        6.56764821E-18
   65.617500        6.57073442E-18
   65.760002        6.57040852E-18
   65.902496        6.56667131E-18
   66.044998        6.56027100E-18
   66.187500        6.55254720E-18
   66.330002        6.54515304E-18
   66.472504        6.53970564E-18
   66.614998        6.53746274E-18
   66.757500        6.53907864E-18
   66.900002        6.54448964E-18
   67.042503        6.55294177E-18
   67.184998        6.56313718E-18
   67.327499        6.57348025E-18
   67.470001        6.58236500E-18
   67.612503        6.58847538E-18
   67.754997        6.59103302E-18
   67.897499        6.58995603E-18
   68.040001        6.58588300E-18
   68.182503        6.58005220E-18
   68.324997        6.57404935E-18
   68.467499        6.56947008E-18
   68.610001        6.56758493E-18
   68.752502        6.56906972E-18
   68.894997        6.57388019E-18
   69.037498        6.58128180E-18
   69.180000        6.59002593E-18
   69.322502        6.59862323E-18
   69.464996        6.60564930E-18
   69.607498        6.61001516E-18
   69.750000        6.61117032E-18
   69.892502        6.60919832E-18
   70.035004        6.60479855E-18
   70.177498        6.59915925E-18
   70.320000        6.59373584E-18
   70.462502        6.58996844E-18
   70.605003        6.58898947E-18
   70.747498        6.59138044E-18
   70.889999        6.59703505E-18
   71.032501        6.60517409E-18
   71.175003        6.61450510E-18
   71.317497        6.62350110E-18
   71.459999        6.63072735E-18
   71.602501        6.63513292E-18
   71.745003        6.63625499E-18
   71.887497        6.63428837E-18
   72.029999        6.63001639E-18
   72.172501        6.62464261E-18
   72.315002        6.61954718E-18
   72.457497        6.61602794E-18
   72.599998        6.61505848E-18
   72.742500        6.61709914E-18
   72.885002        6.62200473E-18
   73.027496        6.62903287E-18
   73.169998        6.63698415E-18
   73.312500        6.64443953E-18
   73.455002        6.65005980E-18
   73.597504        6.65287925E-18
   73.739998        6.65251819E-18
   73.882500        6.64926902E-18
   74.025002        6.64401973E-18
   74.167503        6.63805824E-18
   74.309998        6.63278745E-18
   74.452499        6.62943488E-18
   74.595001        6.62881574E-18
   74.737503        6.63118561E-18
   74.879997        6.63620908E-18
   75.022499        6.64302712E-18
   75.165001        6.65042335E-18
   75.307503        6.65704783E-18
   75.449997        6.66167673E-18
   75.592499        6.66346013E-18
   75.735001        6.66211307E-18
   75.877502        6.65799619E-18
   76.019997        6.65206696E-18
   76.162498        6.64569105E-18
   76.305000        6.64035408E-18
   76.447502        6.63734397E-18
   76.589996        6.63747797E-18
   76.732498        6.64093766E-18
   76.875000        6.64725070E-18
   77.017502        6.65540629E-18
   77.160004        6.66407803E-18
   77.302498        6.67188786E-18
   77.445000        6.67766696E-18
   77.587502        6.68066797E-18
   77.730003        6.68070064E-18
   77.872498        6.67816657E-18
   78.014999        6.67399179E-18
   78.157501        6.66945884E-18
   78.300003        6.66595408E-18
   78.442497        6.66468436E-18
   78.584999        6.66641151E-18
   78.727501        6.67127409E-18
   78.870003        6.67874726E-18
   79.012497        6.68775360E-18
   79.154999        6.69689725E-18
   79.297501        6.70477118E-18
   79.440002        6.71024753E-18
   79.582497        6.71270178E-18
   79.724998        6.71211655E-18
   79.867500        6.70906260E-18
   80.010002        6.70456563E-18
   80.152496        6.69990447E-18
   80.294998        6.69636827E-18
   80.437500        6.69501128E-18
   80.580002        6.69644644E-18
   80.722504        6.70071469E-18
   80.864998        6.70725273E-18
   81.007500        6.71499266E-18
   81.150002        6.72256922E-18
   81.292503        6.72860598E-18
   81.434998        6.73201810E-18
   81.577499        6.73224764E-18
   81.720001        6.72938312E-18
   81.862503        6.72412514E-18
   82.004997        6.71762309E-18
   82.147499        6.71121740E-18
   82.290001        6.70616250E-18
   82.432503        6.70338276E-18
   82.574997        6.70330666E-18
   82.717499        6.70580102E-18
   82.860001        6.71020411E-18
   83.002502        6.71545546E-18
   83.144997        6.72029157E-18
   83.287498        6.72349649E-18
   83.430000        6.72415037E-18
   83.572502        6.72184130E-18
   83.714996        6.71677854E-18
   83.857498        6.70977315E-18
   84.000000        6.70208285E-18
   84.142502        6.69514652E-18
   84.285004        6.69027733E-18
   84.427498        6.68838474E-18
   84.570000        6.68979094E-18
   84.712502        6.69418865E-18
   84.855003        6.70071965E-18
   84.997498        6.70816345E-18
   85.139999        6.71517960E-18
   85.282501        6.72055255E-18
   85.425003        6.72341170E-18
   85.567497        6.72338647E-18
   85.709999        6.72067870E-18
   85.852501        6.71603366E-18
   85.995003        6.71061522E-18
   86.137497        6.70577910E-18
   86.279999        6.70279422E-18
   86.422501        6.70257088E-18
   86.565002        6.70545195E-18
   86.707497        6.71113469E-18
   86.849998        6.71873110E-18
   86.992500        6.72697189E-18
   87.135002        6.73447772E-18
   87.277496        6.74005044E-18
   87.419998        6.74290132E-18
   87.562500        6.74278965E-18
   87.705002        6.74004672E-18
   87.847504        6.73549640E-18
   87.989998        6.73030170E-18
   88.132500        6.72575097E-18
   88.275002        6.72302913E-18
   88.417503        6.72299397E-18
   88.559998        6.72600284E-18
   88.702499        6.73182992E-18
   88.845001        6.73969765E-18
   88.987503        6.74843598E-18
   89.129997        6.75673136E-18
   89.272499        6.76342284E-18
   89.415001        6.76775809E-18
   89.557503        6.76955349E-18
   89.699997        6.76922179E-18
   89.842499        6.76765759E-18
   89.985001        6.76603218E-18
   90.127502        6.76553629E-18
   90.269997        6.76713936E-18
   90.412498        6.77139521E-18
   90.555000        6.77833608E-18
   90.697502        6.78745078E-18
   90.839996        6.79776283E-18
   90.982498        6.80799174E-18
   91.125000        6.81678219E-18
   91.267502        6.82296992E-18
   91.410004        6.82582659E-18
   91.552498        6.82522936E-18
   91.695000        6.82170516E-18
   91.837502        6.81633055E-18
   91.980003        6.81050803E-18