  -30.000000        9.84044911E-18
  -29.857500        9.85751136E-18
  -29.715000        9.88334669E-18
  -29.572500        9.90642503E-18
  -29.430000        9.91863835E-18
  -29.287500        9.91982867E-18
  -29.145000        9.91749519E-18
  -29.002501        9.92190241E-18
  -28.860001        9.93955858E-18
  -28.717501        9.96902606E-18
  -28.575001        1.00015789E-17
  -28.432501        1.00263141E-17
  -28.290001        1.00366365E-17
  -28.147499        1.00342054E-17
  -28.004999        1.00279643E-17
  -27.862499        1.00288411E-17
  -27.719999        1.00432829E-17
  -27.577499        1.00695062E-17
  -27.434999        1.00986866E-17
  -27.292500        1.01203372E-17
  -27.150000        1.01286314E-17
  -27.007500        1.01258512E-17
  -26.865000        1.01209279E-17
  -26.722500        1.01239677E-17
  -26.580000        1.01401093E-17
  -26.437500        1.01664195E-17
  -26.295000        1.01936916E-17
  -26.152500        1.02120459E-17
  -26.010000        1.02169213E-17
  -25.867500        1.02118416E-17
  -25.725000        1.02062763E-17
  -25.582500        1.02099118E-17
  -25.440001        1.02267937E-17
  -25.297501        1.02528946E-17
  -25.155001        1.02785579E-17
  -25.012501        1.02943454E-17
  -24.870001        1.02967327E-17
  -24.727501        1.02902162E-17
  -24.584999        1.02845624E-17
  -24.442499        1.02888761E-17
  -24.299999        1.03060972E-17
  -24.157499        1.03312484E-17
  -24.014999        1.03545187E-17
  -23.872499        1.03672689E-17
  -23.730000        1.03673383E-17
  -23.587500        1.03604024E-17
  -23.445000        1.03565420E-17
  -23.302500        1.03641032E-17
  -23.160000        1.03845602E-17
  -23.017500        1.04115197E-17
  -22.875000        1.04344831E-17
  -22.732500        1.04451223E-17
  -22.590000        1.04422792E-17
  -22.447500        1.04326699E-17
  -22.305000        1.04268374E-17
  -22.162500        1.04328113E-17
  -22.020000        1.04512823E-17
  -21.877501        1.04752151E-17
  -21.735001        1.04941451E-17
  -21.592501        1.05005583E-17
  -21.450001        1.04944992E-17
  -21.307501        1.04835895E-17
  -21.165001        1.04784411E-17
  -21.022499        1.04862025E-17
  -20.879999        1.05061359E-17
  -20.737499        1.05299314E-17
  -20.594999        1.05465842E-17
  -20.452499        1.05489475E-17
  -20.309999        1.05380304E-17
  -20.167500        1.05224455E-17
  -20.025000        1.05133440E-17
  -19.882500        1.05178513E-17
  -19.740000        1.05349475E-17
  -19.597500        1.05562449E-17
  -19.455000        1.05711805E-17
  -19.312500        1.05734891E-17
  -19.170000        1.05650378E-17
  -19.027500        1.05547220E-17
  -18.885000        1.05530578E-17
  -18.742500        1.05657368E-17
  -18.600000        1.05900228E-17
  -18.457500        1.06161708E-17
  -18.315001        1.06330370E-17
  -18.172501        1.06345450E-17
  -18.030001        1.06231415E-17
  -17.887501        1.06082026E-17
  -17.745001        1.06003808E-17
  -17.602501        1.06052768E-17
  -17.459999        1.06202513E-17
  -17.317499        1.06362506E-17
  -17.174999        1.06435042E-17
  -17.032499        1.06376436E-17
  -16.889999        1.06225236E-17
  -16.747499        1.06080487E-17
  -16.605000        1.06043165E-17
  -16.462500        1.06156067E-17
  -16.320000        1.06378297E-17
  -16.177500        1.06609693E-17
  -16.035000        1.06750322E-17
  -15.892500        1.06759247E-17
  -15.750000        1.06677397E-17
  -15.607500        1.06601040E-17
  -15.465000        1.06622224E-17
  -15.322500        1.06772358E-17
  -15.180000        1.07003009E-17
  -15.037500        1.07215288E-17
  -14.895000        1.07319835E-17
  -14.752500        1.07290950E-17
  -14.610000        1.07181928E-17
  -14.467500        1.07092609E-17
  -14.325000        1.07108681E-17
  -14.182500        1.07249657E-17
  -14.040000        1.07457139E-17
  -13.897500        1.07630367E-17
  -13.755000        1.07687567E-17
  -13.612500        1.07615908E-17
  -13.470000        1.07479688E-17
  -13.327500        1.07381915E-17
  -13.185000        1.07402421E-17
  -13.042500        1.07549990E-17
  -12.900000        1.07757588E-17
  -12.757500        1.07923355E-17
  -12.615000        1.07972679E-17
  -12.472500        1.07903544E-17
  -12.330000        1.07787598E-17
  -12.187500        1.07726295E-17
  -12.045000        1.07788582E-17
  -11.902500        1.07968072E-17
  -11.760000        1.08185885E-17
  -11.617500        1.08337714E-17
  -11.475000        1.08356855E-17
  -11.332500        1.08255112E-17
  -11.190000        1.08116650E-17
  -11.047500        1.08048234E-17
  -10.905000        1.08115740E-17
  -10.762500        1.08304966E-17
  -10.620000        1.08530547E-17
  -10.477500        1.08687587E-17
  -10.335000        1.08714933E-17
  -10.192500        1.08631926E-17
  -10.050000        1.08526361E-17
  -9.9075003        1.08500801E-17
  -9.7650003        1.08609716E-17
  -9.6225004        1.08825370E-17
  -9.4799995        1.09053325E-17
  -9.3374996        1.09188503E-17
  -9.1949997        1.09178295E-17
  -9.0524998        1.09054673E-17
  -8.9099998        1.08915947E-17
  -8.7674999        1.08868880E-17
  -8.6250000        1.08965677E-17
  -8.4825001        1.09173597E-17
  -8.3400002        1.09395182E-17
  -8.1975002        1.09526919E-17
  -8.0550003        1.09521087E-17
  -7.9124999        1.09413612E-17
  -7.7700000        1.09301371E-17
  -7.6275001        1.09282793E-17
  -7.4850001        1.09397614E-17
  -7.3425002        1.09602225E-17
  -7.1999998        1.09795372E-17
  -7.0574999        1.09878942E-17
  -6.9150000        1.09817251E-17
  -6.7725000        1.09659259E-17
  -6.6300001        1.09510284E-17
  -6.4875002        1.09470356E-17
  -6.3449998        1.09575937E-17
  -6.2024999        1.09779904E-17
  -6.0599999        1.09981388E-17
  -5.9175000        1.10087251E-17
  -5.7750001        1.10067862E-17
  -5.6325002        1.09973968E-17
  -5.4899998        1.09904527E-17
  -5.3474998        1.09945406E-17
  -5.2049999        1.10116186E-17
  -5.0625000        1.10357218E-17
  -4.9200001        1.10564749E-17
  -4.7775002        1.10652885E-17
  -4.6350002        1.10604901E-17
  -4.4924998        1.10482974E-17
  -4.3499999        1.10390652E-17
  -4.2075000        1.10410679E-17
  -4.0650001        1.10555857E-17
  -3.9224999        1.10762363E-17
  -3.7800000        1.10929288E-17
  -3.6375000        1.10980358E-17
  -3.4949999        1.10910221E-17
  -3.3525000        1.10787418E-17
  -3.2100000        1.10712343E-17
  -3.0675001        1.10755878E-17
  -2.9250000        1.10916011E-17
  -2.7825000        1.11118877E-17
  -2.6400001        1.11263568E-17
  -2.4974999        1.11283602E-17
  -2.3550000        1.11187724E-17
  -2.2125001        1.11055085E-17
  -2.0699999        1.10987769E-17
  -1.9275000        1.11049221E-17
  -1.7850000        1.11225873E-17
  -1.6425000        1.11435340E-17
  -1.5000000        1.11576143E-17
  -1.3575000        1.11588997E-17
  -1.2150000        1.11492656E-17
  -1.0725000        1.11372243E-17
 -0.93000001        1.11327468E-17
 -0.78750002        1.11411724E-17
 -0.64499998        1.11599238E-17
 -0.50250000        1.11800251E-17
 -0.36000001        1.11915279E-17
 -0.21750000        1.11895691E-17
 -7.50000030E-02    1.11774004E-17
  6.75000027E-02    1.11645138E-17
  0.20999999        1.11609884E-17
  0.35249999        1.11714332E-17
  0.49500000        1.11921805E-17
  0.63749999        1.12134457E-17
  0.77999997        1.12251552E-17
  0.92250001        1.12229616E-17
   1.0650001        1.12108202E-17
   1.2075000        1.11985804E-17
   1.3500000        1.11960327E-17
   1.4924999        1.12069986E-17
   1.6350000        1.12270230E-17
   1.7775000        1.12460697E-17
   1.9200000        1.12546029E-17
   2.0625000        1.12493974E-17
   2.2049999        1.12355752E-17
   2.3475001        1.12236142E-17
   2.4900000        1.12231295E-17
   2.6324999        1.12371312E-17
   2.7750001        1.12602070E-17
   2.9175000        1.12817236E-17
   3.0599999        1.12921196E-17
   3.2025001        1.12885181E-17
   3.3450000        1.12763246E-17
   3.4875000        1.12658484E-17
   3.6300001        1.12660246E-17
   3.7725000        1.12790113E-17
   3.9150000        1.12989042E-17
   4.0574999        1.13153427E-17
   4.1999998        1.13198095E-17
   4.3425002        1.13108272E-17
   4.4850001        1.12949263E-17
   4.6275001        1.12827973E-17
   4.7700000        1.12829553E-17
   4.9124999        1.12967097E-17
   5.0549998        1.13174620E-17
   5.1975002        1.13347203E-17
   5.3400002        1.13404022E-17
   5.4825001        1.13336218E-17
   5.6250000        1.13211115E-17
   5.7674999        1.13130399E-17
   5.9099998        1.13168044E-17
   6.0524998        1.13325357E-17
   6.1950002        1.13530456E-17
   6.3375001        1.13682186E-17
   6.4800000        1.13711733E-17
   6.6224999        1.13624573E-17
   6.7649999        1.13497386E-17
   6.9074998        1.13431840E-17
   7.0500002        1.13493283E-17
   7.1925001        1.13671491E-17
   7.3350000        1.13886996E-17
   7.4775000        1.14039280E-17
   7.6199999        1.14067396E-17
   7.7624998        1.13986382E-17
   7.9050002        1.13877583E-17
   8.0474997        1.13838730E-17
   8.1899996        1.13924244E-17
   8.3325005        1.14111997E-17
   8.4750004        1.14316700E-17
   8.6175003        1.14441753E-17
   8.7600002        1.14438006E-17
   8.9025002        1.14333822E-17
   9.0450001        1.14217852E-17
   9.1875000        1.14185021E-17
   9.3299999        1.14278393E-17
   9.4724998        1.14462184E-17
   9.6149998        1.14642568E-17
   9.7574997        1.14723838E-17
   9.8999996        1.14666208E-17
   10.042500        1.14510186E-17
   10.185000        1.14352823E-17
   10.327500        1.14289932E-17
   10.470000        1.14359192E-17
   10.612500        1.14518408E-17
   10.755000        1.14672214E-17
   10.897500        1.14730977E-17
   11.040000        1.14666333E-17
   11.182500        1.14529566E-17
   11.325000        1.14421561E-17
   11.467500        1.14432075E-17
   11.610000        1.14584979E-17
   11.752500        1.14822620E-17
   11.895000        1.15038903E-17
   12.037500        1.15141597E-17
   12.180000        1.15106550E-17
   12.322500        1.14991249E-17
   12.465000        1.14899738E-17
   12.607500        1.14919756E-17
   12.750000        1.15069955E-17
   12.892500        1.15288885E-17
   13.035000        1.15472205E-17
   13.177500        1.15535807E-17
   13.320000        1.15466762E-17
   13.462500        1.15331328E-17
   13.605000        1.15235300E-17
   13.747500        1.15260331E-17
   13.890000        1.15414567E-17
   14.032500        1.15627343E-17
   14.175000        1.15790976E-17
   14.317500        1.15824824E-17
   14.460000        1.15723155E-17
   14.602500        1.15558223E-17
   14.745000        1.15436967E-17
   14.887500        1.15437364E-17
   15.030000        1.15562773E-17
   15.172500        1.15741353E-17
   15.315000        1.15870683E-17
   15.457500        1.15880385E-17
   15.600000        1.15775011E-17
   15.742500        1.15631346E-17
   15.885000        1.15551970E-17
   16.027500        1.15603206E-17
   16.170000        1.15774945E-17
   16.312500        1.15986480E-17
   16.455000        1.16134644E-17
   16.597500        1.16155299E-17
   16.740000        1.16061058E-17
   16.882500        1.15932663E-17
   17.025000        1.15869607E-17
   17.167500        1.15929876E-17
   17.309999        1.16095279E-17
   17.452499        1.16283049E-17
   17.594999        1.16396604E-17
   17.737499        1.16384271E-17
   17.879999        1.16270699E-17
   18.022499        1.16141758E-17
   18.165001        1.16092317E-17
   18.307501        1.16168691E-17
   18.450001        1.16340654E-17
   18.592501        1.16519986E-17
   18.735001        1.16614194E-17
   18.877501        1.16582951E-17
   19.020000        1.16462820E-17
   19.162500        1.16345311E-17
   19.305000        1.16321571E-17
   19.447500        1.16427185E-17
   19.590000        1.16620522E-17
   19.732500        1.16807779E-17
   19.875000        1.16899687E-17
   20.017500        1.16865293E-17
   20.160000        1.16750422E-17
   20.302500        1.16649506E-17
   20.445000        1.16647811E-17
   20.587500        1.16769075E-17
   20.730000        1.16960534E-17
   20.872499        1.17124515E-17
   21.014999        1.17177628E-17
   21.157499        1.17101867E-17
   21.299999        1.16956506E-17
   21.442499        1.16843406E-17
   21.584999        1.16846359E-17
   21.727501        1.16980999E-17
   21.870001        1.17185437E-17
   22.012501        1.17357449E-17
   22.155001        1.17415864E-17
   22.297501        1.17349160E-17
   22.440001        1.17221981E-17
   22.582500        1.17135566E-17
   22.725000        1.17165907E-17
   22.867500        1.17316876E-17
   23.010000        1.17516871E-17
   23.152500        1.17661049E-17
   23.295000        1.17674069E-17
   23.437500        1.17555575E-17
   23.580000        1.17381106E-17
   23.722500        1.17257732E-17
   23.865000        1.17260875E-17
   24.007500        1.17390172E-17
   24.150000        1.17570787E-17
   24.292500        1.17699124E-17
   24.434999        1.17705593E-17
   24.577499        1.17596578E-17
   24.719999        1.17450490E-17
   24.862499        1.17370394E-17
   25.004999        1.17421746E-17
   25.147499        1.17592732E-17
   25.290001        1.17801008E-17
   25.432501        1.17942811E-17
   25.575001        1.17954888E-17
   25.717501        1.17852061E-17
   25.860001        1.17718091E-17
   26.002501        1.17655267E-17
   26.145000        1.17723352E-17
   26.287500        1.17904199E-17
   26.430000        1.18113318E-17
   26.572500        1.18251002E-17
   26.715000        1.18262095E-17
   26.857500        1.18168475E-17
   27.000000        1.18054779E-17
   27.142500        1.18016472E-17
   27.285000        1.18101531E-17
   27.427500        1.18281269E-17
   27.570000        1.18467583E-17
   27.712500        1.18566158E-17
   27.855000        1.18533361E-17
   27.997499        1.18402550E-17
   28.139999        1.18263857E-17
   28.282499        1.18210057E-17
   28.424999        1.18281095E-17
   28.567499        1.18440865E-17
   28.709999        1.18599990E-17
   28.852501        1.18670706E-17
   28.995001        1.18620339E-17
   29.137501        1.18491232E-17
   29.280001        1.18374840E-17
   29.422501        1.18356104E-17
   29.565001        1.18461793E-17
   29.707500        1.18644170E-17
   29.850000        1.18809904E-17
   29.992500        1.18876731E-17
   30.135000        1.18823345E-17
   30.277500        1.18702263E-17
   30.420000        1.18607914E-17
   30.562500        1.18618974E-17
   30.705000        1.18750231E-17
   30.847500        1.18942931E-17
   30.990000        1.19099756E-17
   31.132500        1.19143290E-17
   31.275000        1.19062690E-17
   31.417500        1.18920167E-17
   31.559999        1.18813444E-17
   31.702499        1.18816703E-17
   31.844999        1.18935734E-17
   31.987499        1.19104636E-17
   32.130001        1.19225917E-17
   32.272499        1.19230053E-17
   32.415001        1.19118326E-17
   32.557499        1.18962824E-17
   32.700001        1.18863463E-17
   32.842499        1.18887667E-17
   32.985001        1.19029115E-17
   33.127499        1.19210582E-17
   33.270000        1.19329356E-17
   33.412498        1.19318280E-17
   33.555000        1.19185609E-17
   33.697498        1.19009982E-17
   33.840000        1.18893283E-17
   33.982498        1.18899901E-17
   34.125000        1.19018725E-17
   34.267502        1.19170827E-17
   34.410000        1.19258136E-17
   34.552502        1.19223808E-17
   34.695000        1.19087820E-17
   34.837502        1.18936305E-17
   34.980000        1.18870925E-17
   35.122501        1.18948365E-17
   35.264999        1.19146566E-17
   35.407501        1.19377564E-17
   35.549999        1.19539651E-17
   35.692501        1.19577287E-17
   35.834999        1.19513189E-17
   35.977501        1.19433374E-17
   36.119999        1.19434516E-17
   36.262501        1.19565062E-17
   36.404999        1.19795804E-17
   36.547501        1.20037109E-17
   36.689999        1.20192486E-17
   36.832500        1.20216044E-17
   36.974998        1.20139282E-17
   37.117500        1.20051320E-17
   37.259998        1.20044504E-17
   37.402500        1.20158332E-17
   37.544998        1.20355408E-17
   37.687500        1.20543699E-17
   37.830002        1.20631661E-17
   37.972500        1.20582891E-17
   38.115002        1.20437547E-17
   38.257500        1.20287827E-17
   38.400002        1.20222521E-17
   38.542500        1.20274162E-17
   38.685001        1.20400613E-17
   38.827499        1.20511877E-17
   38.970001        1.20525650E-17
   39.112499        1.20418001E-17
   39.255001        1.20238279E-17
   39.397499        1.20079617E-17
   39.540001        1.20022840E-17
   39.682499        1.20087914E-17
   39.825001        1.20222314E-17
   39.967499        1.20333231E-17
   40.110001        1.20344133E-17
   40.252499        1.20241298E-17
   40.395000        1.20082165E-17
   40.537498        1.19960437E-17
   40.680000        1.19949229E-17
   40.822498        1.20056556E-17
   40.965000        1.20220296E-17
   41.107498        1.20345581E-17
   41.250000        1.20362108E-17
   41.392502        1.20266494E-17
   41.535000        1.20124153E-17
   41.677502        1.20029466E-17
   41.820000        1.20048408E-17
   41.962502        1.20178474E-17
   42.105000        1.20350197E-17
   42.247501        1.20469550E-17
   42.389999        1.20475547E-17
   42.532501        1.20378122E-17
   42.674999        1.20253110E-17
   42.817501        1.20197201E-17
   42.959999        1.20269728E-17
   43.102501        1.20456423E-17
   43.244999        1.20677239E-17
   43.387501        1.20833584E-17
   43.529999        1.20866705E-17
   43.672501        1.20792126E-17
   43.814999        1.20689398E-17
   43.957500        1.20653226E-17
   44.099998        1.20735539E-17
   44.242500        1.20913440E-17
   44.384998        1.21102443E-17
   44.527500        1.21207247E-17
   44.669998        1.21179528E-17
   44.812500        1.21047882E-17
   44.955002        1.20901744E-17
   45.097500        1.20838763E-17
   45.240002        1.20906964E-17
   45.382500        1.21076469E-17
   45.525002        1.21257638E-17
   45.667500        1.21354758E-17
   45.810001        1.21323217E-17
   45.952499        1.21195741E-17
   46.095001        1.21062192E-17
   46.237499        1.21015051E-17
   46.380001        1.21093485E-17
   46.522499        1.21259541E-17
   46.665001        1.21420849E-17
   46.807499        1.21486040E-17
   46.950001        1.21419683E-17
   47.092499        1.21263677E-17
   47.235001        1.21112493E-17
   47.377499        1.21056923E-17
   47.520000        1.21130368E-17
   47.662498        1.21289683E-17
   47.805000        1.21441852E-17
   47.947498        1.21500342E-17
   48.090000        1.21437153E-17
   48.232498        1.21299270E-17
   48.375000        1.21179958E-17
   48.517502        1.21162322E-17
   48.660000        1.21269260E-17
   48.802502        1.21449925E-17
   48.945000        1.21610679E-17
   49.087502        1.21671626E-17
   49.230000        1.21614608E-17
   49.372501        1.21493699E-17
   49.514999        1.21402081E-17
   49.657501        1.21415340E-17
   49.799999        1.21545688E-17
   49.942501        1.21734434E-17
   50.084999        1.21887429E-17
   50.227501        1.21931658E-17
   50.369999        1.21858957E-17
   50.512501        1.21730347E-17
   50.654999        1.21638663E-17
   50.797501        1.21652154E-17
   50.939999        1.21773228E-17
   51.082500        1.21937416E-17
   51.224998        1.22052923E-17
   51.367500        1.22056769E-17
   51.509998        1.21953372E-17
   51.652500        1.21812056E-17
   51.794998        1.21725053E-17
   51.937500        1.21751259E-17
   52.080002        1.21880133E-17
   52.222500        1.22037463E-17
   52.365002        1.22129876E-17
   52.507500        1.22101172E-17
   52.650002        1.21966416E-17
   52.792500        1.21803181E-17
   52.935001        1.21705077E-17
   53.077499        1.21725674E-17
   53.220001        1.21846740E-17
   53.362499        1.21989958E-17
   53.505001        1.22065165E-17
   53.647499        1.22025882E-17
   53.790001        1.21898430E-17
   53.932499        1.21766752E-17
   54.075001        1.21721952E-17
   54.217499        1.21806795E-17
   54.360001        1.21988808E-17
   54.502499        1.22178464E-17
   54.645000        1.22281688E-17
   54.787498        1.22255524E-17
   54.930000        1.22133308E-17
   55.072498        1.22004384E-17
   55.215000        1.21960320E-17
   55.357498        1.22040110E-17
   55.500000        1.22207109E-17
   55.642502        1.22371760E-17
   55.785000        1.22446289E-17
   55.927502        1.22398461E-17
   56.070000        1.22271927E-17
   56.212502        1.22160721E-17
   56.355000        1.22153045E-17
   56.497501        1.22278090E-17
   56.639999        1.22487838E-17
   56.782501        1.22684856E-17
   56.924999        1.22779527E-17
   57.067501        1.22742618E-17
   57.209999        1.22621750E-17
   57.352501        1.22511967E-17
   57.494999        1.22498360E-17
   57.637501        1.22605058E-17
   57.779999        1.22781123E-17
   57.922501        1.22931753E-17
   58.064999        1.22975635E-17
   58.207500        1.22894116E-17
   58.349998        1.22742362E-17
   58.492500        1.22616109E-17
   58.634998        1.22594056E-17
   58.777500        1.22690563E-17
   58.919998        1.22847256E-17
   59.062500        1.22968364E-17
   59.205002        1.22978571E-17
   59.347500        1.22868548E-17
   59.490002        1.22700804E-17
   59.632500        1.22572566E-17
   59.775002        1.22558066E-17
   59.917500        1.22664979E-17
   60.060001        1.22831010E-17
   60.202499        1.22962317E-17
   60.345001        1.22990416E-17
   60.487499        1.22912926E-17
   60.630001        1.22793887E-17
   60.772499        1.22723444E-17
   60.915001        1.22761883E-17
   61.057499        1.22901850E-17
   61.200001        1.23071919E-17
   61.342499        1.23179361E-17
   61.485001        1.23166283E-17
   61.627499        1.23045043E-17
   61.770000        1.22891601E-17
   61.912498        1.22800703E-17
   62.055000        1.22829852E-17
   62.197498        1.22965874E-17
   62.340000        1.23134114E-17
   62.482498        1.23244435E-17
   62.625000        1.23246057E-17
   62.767502        1.23157921E-17
   62.910000        1.23056161E-17
   63.052502        1.23026415E-17
   63.195000        1.23109985E-17
   63.337502        1.23276910E-17
   63.480000        1.23442396E-17
   63.622501        1.23517198E-17
   63.764999        1.23461463E-17
   63.907501        1.23309452E-17
   64.050003        1.23150013E-17
   64.192497        1.23074243E-17
   64.334999        1.23121789E-17
   64.477501        1.23257943E-17
   64.620003        1.23395512E-17
   64.762497        1.23448170E-17
   64.904999        1.23382972E-17
   65.047501        1.23240556E-17
   65.190002        1.23110440E-17
   65.332497        1.23076509E-17
   65.474998        1.23165547E-17
   65.617500        1.23330098E-17
   65.760002        1.23476360E-17
   65.902496        1.23520457E-17
   66.044998        1.23439394E-17
   66.187500        1.23285861E-17
   66.330002        1.23157796E-17
   66.472504        1.23140674E-17
   66.614998        1.23256951E-17
   66.757500        1.23453083E-17
   66.900002        1.23631730E-17
   67.042503        1.23709857E-17
   67.184998        1.23668051E-17
   67.327499        1.23561212E-17
   67.470001        1.23484558E-17
   67.612503        1.23515337E-17
   67.754997        1.23665462E-17
   67.897499        1.23873572E-17
   68.040001        1.24041316E-17
   68.182503        1.24092147E-17
   68.324997        1.24017154E-17
   68.467499        1.23880479E-17
   68.610001        1.23780879E-17
   68.752502        1.23792649E-17
   68.894997        1.23921168E-17
   69.037498        1.24099707E-17
   69.180000        1.24229293E-17
   69.322502        1.24237664E-17
   69.464996        1.24121942E-17
   69.607498        1.23949574E-17
   69.750000        1.23817365E-17
   69.892502        1.23793510E-17
   70.035004        1.23877526E-17
   70.177498        1.24002199E-17
   70.320000        1.24076050E-17
   70.462502        1.24040357E-17
   70.605003        1.23906238E-17
   70.747498        1.23749098E-17
   70.889999        1.23664006E-17
   71.032501        1.23708624E-17
   71.175003        1.23868361E-17
   71.317497        1.24064428E-17
   71.459999        1.24200218E-17
   71.602501        1.24217630E-17
   71.745003        1.24129924E-17
   71.887497        1.24011339E-17
   72.029999        1.23950310E-17
   72.172501        1.23994804E-17
   72.315002        1.24123091E-17
   72.457497        1.24257665E-17
   72.599998        1.24313541E-17
   72.742500        1.24251553E-17
   72.885002        1.24104008E-17
   73.027496        1.23956778E-17
   73.169998        1.23898495E-17
   73.312500        1.23967416E-17
   73.455002        1.24128112E-17
   73.597504        1.24292159E-17
   73.739998        1.24370460E-17
   73.882500        1.24325684E-17
   74.025002        1.24193294E-17
   74.167503        1.24058588E-17
   74.309998        1.24003820E-17
   74.452499        1.24057670E-17
   74.595001        1.24177636E-17
   74.737503        1.24276385E-17
   74.879997        1.24275905E-17
   75.022499        1.24156683E-17
   75.165001        1.23971750E-17
   75.307503        1.23816704E-17
   75.449997        1.23773417E-17
   75.592499        1.23861181E-17
   75.735001        1.24024955E-17
   75.877502        1.24167858E-17
   76.019997        1.24208705E-17
   76.162498        1.24130122E-17
   76.305000        1.23988236E-17
   76.447502        1.23878320E-17
   76.589996        1.23876956E-17
   76.732498        1.23995697E-17
   76.875000        1.24174153E-17
   77.017502        1.24316668E-17
   77.160004        1.24350583E-17
   77.302498        1.24270784E-17
   77.445000        1.24143514E-17
   77.587502        1.24066934E-17
   77.730003        1.24111850E-17
   77.872498        1.24278345E-17
   78.014999        1.24494355E-17
   78.157501        1.24657268E-17
   78.300003        1.24693846E-17
   78.442497        1.24602633E-17
   78.584999        1.24453691E-17
   78.727501        1.24345959E-17
   78.870003        1.24347927E-17
   79.012497        1.24457372E-17
   79.154999        1.24603898E-17
   79.297501        1.24692862E-17
   79.440002        1.24663704E-17
   79.582497        1.24527500E-17
   79.724998        1.24361137E-17
   79.867500        1.24261413E-17
   80.010002        1.24286915E-17
   80.152496        1.24422440E-17
   80.294998        1.24587686E-17
   80.437500        1.24684681E-17
   80.580002        1.24655796E-17
   80.722504        1.24517433E-17
   80.864998        1.24349482E-17
   81.007500        1.24247127E-17
   81.150002        1.24264159E-17
   81.292503        1.24381891E-17
   81.434998        1.24521983E-17
   81.577499        1.24595205E-17
   81.720001        1.24556120E-17
   81.862503        1.24430687E-17
   82.004997        1.24299934E-17
   82.147499        1.24249931E-17
   82.290001        1.24318389E-17
   82.432503        1.24470507E-17
   82.574997        1.24618697E-17
   82.717499        1.24674589E-17
   82.860001        1.24601797E-17
   83.002502        1.24437809E-17
   83.144997        1.24271719E-17
   83.287498        1.24191458E-17
   83.430000        1.24232296E-17
   83.572502        1.24357531E-17
   83.714996        1.24482948E-17
   83.857498        1.24529618E-17
   84.000000        1.24472931E-17
   84.142502        1.24357862E-17
   84.285004        1.24271165E-17
   84.427498        1.24287336E-17
   84.570000        1.24421447E-17
   84.712502        1.24617654E-17
   84.855003        1.24780874E-17
   84.997498        1.24832705E-17
   85.139999        1.24758101E-17
   85.282501        1.24614437E-17
   85.425003        1.24497374E-17
   85.567497        1.24484098E-17
   85.709999        1.24587760E-17
   85.852501        1.24750822E-17
   85.995003        1.24880938E-17
   86.137497        1.24907738E-17
   86.279999        1.24825930E-17
   86.422501        1.24698602E-17
   86.565002        1.24618515E-17
   86.707497        1.24650833E-17
   86.849998        1.24792057E-17
   86.992500        1.24970215E-17
   87.135002        1.25086815E-17
   87.277496        1.25075449E-17
   87.419998        1.24941942E-17
   87.562500        1.24761873E-17
   87.705002        1.24636572E-17
   87.847504        1.24633892E-17
   87.989998        1.24749002E-17
   88.132500        1.24908698E-17
   88.275002        1.25016273E-17
   88.417503        1.25010036E-17
   88.559998        1.24900120E-17
   88.702499        1.24761485E-17
   88.845001        1.24687452E-17
   88.987503        1.24731946E-17
   89.129997        1.24875255E-17
   89.272499        1.25034396E-17
   89.415001        1.25111920E-17
   89.557503        1.25053976E-17
   89.699997        1.24883014E-17
   89.842499        1.24685326E-17
   89.985001        1.24560852E-17
   90.127502        1.24565319E-17
   90.269997        1.24679056E-17
   90.412498        1.24820918E-17
   90.555000        1.24898532E-17
   90.697502        1.24864469E-17
   90.839996        1.24744486E-17
   90.982498        1.24621071E-17
   91.125000        1.24582508E-17
   91.267502        1.24668443E-17
   91.410004        1.24844947E-17
   91.552498        1.25024057E-17
   91.695000        1.25116171E-17
   91.837502        1.25083489E-17
   91.980003        1.24962473E-17