  -30.000000        9.78447028E-19
  -29.857500        9.80199823E-19
  -29.715000        9.83398221E-19
  -29.572500        9.87514375E-19
  -29.430000        9.91906497E-19
  -29.287500        9.95948929E-19
  -29.145000        9.99149704E-19
  -29.002501        1.00123999E-18
  -28.860001        1.00221586E-18
  -28.717501        1.00232742E-18
  -28.575001        1.00202137E-18
  -28.432501        1.00184714E-18
  -28.290001        1.00234490E-18
  -28.147499        1.00393422E-18
  -28.004999        1.00682036E-18
  -27.862499        1.01094602E-18
  -27.719999        1.01599265E-18
  -27.577499        1.02143902E-18
  -27.434999        1.02666411E-18
  -27.292500        1.03107670E-18
  -27.150000        1.03423726E-18
  -27.007500        1.03595004E-18
  -26.865000        1.03630066E-18
  -26.722500        1.03563654E-18
  -26.580000        1.03449162E-18
  -26.437500        1.03347832E-18
  -26.295000        1.03316833E-18
  -26.152500        1.03398321E-18
  -26.010000        1.03611765E-18
  -25.867500        1.03950433E-18
  -25.725000        1.04382893E-18
  -25.582500        1.04859070E-18
  -25.440001        1.05320037E-18
  -25.297501        1.05709732E-18
  -25.155001        1.05986538E-18
  -25.012501        1.06132008E-18
  -24.870001        1.06154983E-18
  -24.727501        1.06089946E-18
  -24.584999        1.05989392E-18
  -24.442499        1.05912785E-18
  -24.299999        1.05913932E-18
  -24.157499        1.06029665E-18
  -24.014999        1.06272722E-18
  -23.872499        1.06629837E-18
  -23.730000        1.07064551E-18
  -23.587500        1.07525094E-18
  -23.445000        1.07954732E-18
  -23.302500        1.08302685E-18
  -23.160000        1.08534223E-18
  -23.017500        1.08637693E-18
  -22.875000        1.08626888E-18
  -22.732500        1.08538680E-18
  -22.590000        1.08426039E-18
  -22.447500        1.08347074E-18
  -22.305000        1.08352730E-18
  -22.162500        1.08475835E-18
  -22.020000        1.08724216E-18
  -21.877501        1.09078829E-18
  -21.735001        1.09498054E-18
  -21.592501        1.09926937E-18
  -21.450001        1.10308857E-18
  -21.307501        1.10597305E-18
  -21.165001        1.10765264E-18
  -21.022499        1.10810531E-18
  -20.879999        1.10755937E-18
  -20.737499        1.10644837E-18
  -20.594999        1.10532764E-18
  -20.452499        1.10476578E-18
  -20.309999        1.10523252E-18
  -20.167500        1.10699927E-18
  -20.025000        1.11008031E-18
  -19.882500        1.11422407E-18
  -19.740000        1.11895751E-18
  -19.597500        1.12368474E-18
  -19.455000        1.12781289E-18
  -19.312500        1.13087966E-18
  -19.170000        1.13265376E-18
  -19.027500        1.13318512E-18
  -18.885000        1.13279376E-18
  -18.742500        1.13200360E-18
  -18.600000        1.13143284E-18
  -18.457500        1.13167293E-18
  -18.315001        1.13316858E-18
  -18.172501        1.13613061E-18
  -18.030001        1.14048830E-18
  -17.887501        1.14589516E-18
  -17.745001        1.15178583E-18
  -17.602501        1.15747435E-18
  -17.459999        1.16228068E-18
  -17.317499        1.16566302E-18
  -17.174999        1.16732441E-18
  -17.032499        1.16727520E-18
  -16.889999        1.16583446E-18
  -16.747499        1.16356498E-18
  -16.605000        1.16116182E-18
  -16.462500        1.15931183E-18
  -16.320000        1.15856343E-18
  -16.177500        1.15922425E-18
  -16.035000        1.16131422E-18
  -15.892500        1.16457259E-18
  -15.750000        1.16852041E-18
  -15.607500        1.17255675E-18
  -15.465000        1.17607723E-18
  -15.322500        1.17858834E-18
  -15.180000        1.17980357E-18
  -15.037500        1.17969397E-18
  -14.895000        1.17849828E-18
  -14.752500        1.17666773E-18
  -14.610000        1.17477452E-18
  -14.467500        1.17338641E-18
  -14.325000        1.17294418E-18
  -14.182500        1.17366279E-18
  -14.040000        1.17548548E-18
  -13.897500        1.17809679E-18
  -13.755000        1.18099213E-18
  -13.612500        1.18358617E-18
  -13.470000        1.18533782E-18
  -13.327500        1.18586133E-18
  -13.185000        1.18500705E-18
  -13.042500        1.18289454E-18
  -12.900000        1.17989467E-18
  -12.757500        1.17656805E-18
  -12.615000        1.17356332E-18
  -12.472500        1.17150106E-18
  -12.330000        1.17085555E-18
  -12.187500        1.17186326E-18
  -12.045000        1.17447508E-18
  -11.902500        1.17836159E-18
  -11.760000        1.18298263E-18
  -11.617500        1.18769415E-18
  -11.475000        1.19187855E-18
  -11.332500        1.19506505E-18
  -11.190000        1.19701741E-18
  -11.047500        1.19776911E-18
  -10.905000        1.19760119E-18
  -10.762500        1.19697367E-18
  -10.620000        1.19642432E-18
  -10.477500        1.19645617E-18
  -10.335000        1.19743575E-18
  -10.192500        1.19951880E-18
  -10.050000        1.20261463E-18
  -9.9075003        1.20639815E-18
  -9.7650003        1.21036986E-18
  -9.6225004        1.21395186E-18
  -9.4799995        1.21660163E-18
  -9.3374996        1.21792667E-18
  -9.1949997        1.21776610E-18
  -9.0524998        1.21622309E-18
  -8.9099998        1.21364477E-18
  -8.7674999        1.21054605E-18
  -8.6250000        1.20750368E-18
  -8.4825001        1.20504085E-18
  -8.3400002        1.20352773E-18
  -8.1975002        1.20311921E-18
  -8.0550003        1.20373711E-18
  -7.9124999        1.20510072E-18
  -7.7700000        1.20679013E-18
  -7.6275001        1.20833696E-18
  -7.4850001        1.20932244E-18
  -7.3425002        1.20946544E-18
  -7.1999998        1.20868675E-18
  -7.0574999        1.20713207E-18
  -6.9150000        1.20514808E-18
  -6.7725000        1.20321330E-18
  -6.6300001        1.20183739E-18
  -6.4875002        1.20144965E-18
  -6.3449998        1.20230113E-18
  -6.2024999        1.20441075E-18
  -6.0599999        1.20755621E-18
  -5.9175000        1.21132432E-18
  -5.7750001        1.21519873E-18
  -5.6325002        1.21866317E-18
  -5.4899998        1.22130591E-18
  -5.3474998        1.22289792E-18
  -5.2049999        1.22343042E-18
  -5.0625000        1.22311516E-18
  -4.9200001        1.22233968E-18
  -4.7775002        1.22159025E-18
  -4.6350002        1.22135399E-18
  -4.4924998        1.22201667E-18
  -4.3499999        1.22377267E-18
  -4.2075000        1.22657557E-18
  -4.0650001        1.23013245E-18
  -3.9224999        1.23395516E-18
  -3.7800000        1.23745527E-18
  -3.6375000        1.24006502E-18
  -3.4949999        1.24135687E-18
  -3.3525000        1.24113157E-18
  -3.2100000        1.23946129E-18
  -3.0675001        1.23667575E-18
  -2.9250000        1.23329827E-18
  -2.7825000        1.22994778E-18
  -2.6400001        1.22722542E-18
  -2.4974999        1.22560570E-18
  -2.3550000        1.22535734E-18
  -2.2125001        1.22649606E-18
  -2.0699999        1.22878745E-18
  -1.9275000        1.23179415E-18
  -1.7850000        1.23496608E-18
  -1.6425000        1.23775378E-18
  -1.5000000        1.23972454E-18
  -1.3575000        1.24065470E-18
  -1.2150000        1.24057726E-18
  -1.0725000        1.23977396E-18
 -0.93000001        1.23871041E-18
 -0.78750002        1.23793048E-18
 -0.64499998        1.23793700E-18
 -0.50250000        1.23907975E-18
 -0.36000001        1.24148095E-18
 -0.21750000        1.24500526E-18
 -7.50000030E-02    1.24928447E-18
  6.75000027E-02    1.25378516E-18
  0.20999999        1.25790793E-18
  0.35249999        1.26110085E-18
  0.49500000        1.26296821E-18
  0.63749999        1.26335192E-18
  0.77999997        1.26237026E-18
  0.92250001        1.26040126E-18
   1.0650001        1.25801298E-18
   1.2075000        1.25585342E-18
   1.3500000        1.25451566E-18
   1.4924999        1.25441764E-18
   1.6350000        1.25571332E-18
   1.7775000        1.25826424E-18
   1.9200000        1.26166871E-18
   2.0625000        1.26534801E-18
   2.2049999        1.26865921E-18
   2.3475001        1.27102360E-18
   2.4900000        1.27203452E-18
   2.6324999        1.27153397E-18
   2.7750001        1.26964149E-18
   2.9175000        1.26673695E-18
   3.0599999        1.26339038E-18
   3.2025001        1.26026322E-18
   3.3450000        1.25798320E-18
   3.4875000        1.25702564E-18
   3.6300001        1.25762131E-18
   3.7725000        1.25971480E-18
   3.9150000        1.26297669E-18
   4.0574999        1.26688056E-18
   4.1999998        1.27081215E-18
   4.3425002        1.27419718E-18
   4.4850001        1.27661369E-18
   4.6275001        1.27786366E-18
   4.7700000        1.27799498E-18
   4.9124999        1.27727461E-18
   5.0549998        1.27611769E-18
   5.1975002        1.27499304E-18
   5.3400002        1.27432684E-18
   5.4825001        1.27441142E-18
   5.6250000        1.27534769E-18
   5.7674999        1.27702077E-18
   5.9099998        1.27911694E-18
   6.0524998        1.28118976E-18
   6.1950002        1.28275261E-18
   6.3375001        1.28339140E-18
   6.4800000        1.28286118E-18
   6.6224999        1.28115408E-18
   6.7649999        1.27851238E-18
   6.9074998        1.27538729E-18
   7.0500002        1.27235143E-18
   7.1925001        1.26998353E-18
   7.3350000        1.26875806E-18
   7.4775000        1.26895668E-18
   7.6199999        1.27061952E-18
   7.7624998        1.27354526E-18
   7.9050002        1.27733251E-18
   8.0474997        1.28145693E-18
   8.1899996        1.28536857E-18
   8.3325005        1.28859457E-18
   8.4750004        1.29082713E-18
   8.6175003        1.29198250E-18
   8.7600002        1.29221576E-18
   8.9025002        1.29188872E-18
   9.0450001        1.29148671E-18
   9.1875000        1.29151256E-18
   9.3299999        1.29237055E-18
   9.4724998        1.29427265E-18
   9.6149998        1.29718867E-18
   9.7574997        1.30084770E-18
   9.8999996        1.30479098E-18
   10.042500        1.30846407E-18
   10.185000        1.31132519E-18
   10.327500        1.31294687E-18
   10.470000        1.31309959E-18
   10.612500        1.31179358E-18
   10.755000        1.30927988E-18
   10.897500        1.30601086E-18
   11.040000        1.30255873E-18
   11.182500        1.29951129E-18
   11.325000        1.29736238E-18
   11.467500        1.29642053E-18
   11.610000        1.29674892E-18
   11.752500        1.29816298E-18
   11.895000        1.30027602E-18
   12.037500        1.30259119E-18
   12.180000        1.30461220E-18
   12.322500        1.30595048E-18
   12.465000        1.30640336E-18
   12.607500        1.30599101E-18
   12.750000        1.30494400E-18
   12.892500        1.30365381E-18
   13.035000        1.30259202E-18
   13.177500        1.30221276E-18
   13.320000        1.30286499E-18
   13.462500        1.30471405E-18
   13.605000        1.30770307E-18
   13.747500        1.31154956E-18
   13.890000        1.31579455E-18
   14.032500        1.31988568E-18
   14.175000        1.32328932E-18
   14.317500        1.32560005E-18
   14.460000        1.32662337E-18
   14.602500        1.32641730E-18
   14.745000        1.32527321E-18
   14.887500        1.32365152E-18
   15.030000        1.32208236E-18
   15.172500        1.32105810E-18
   15.315000        1.32093764E-18
   15.457500        1.32188342E-18
   15.600000        1.32383278E-18
   15.742500        1.32651625E-18
   15.885000        1.32950682E-18
   16.027500        1.33230342E-18
   16.170000        1.33442638E-18
   16.312500        1.33551598E-18
   16.455000        1.33541372E-18
   16.597500        1.33420479E-18
   16.740000        1.33221377E-18
   16.882500        1.32994378E-18
   17.025000        1.32797912E-18
   17.167500        1.32686150E-18
   17.309999        1.32697917E-18
   17.452499        1.32848556E-18
   17.594999        1.33127016E-18
   17.737499        1.33498410E-18
   17.879999        1.33910853E-18
   18.022499        1.34305025E-18
   18.165001        1.34625072E-18
   18.307501        1.34827948E-18
   18.450001        1.34890814E-18
   18.592501        1.34814641E-18
   18.735001        1.34623986E-18
   18.877501        1.34362328E-18
   19.020000        1.34083899E-18
   19.162500        1.33843169E-18
   19.305000        1.33684267E-18
   19.447500        1.33632196E-18
   19.590000        1.33688103E-18
   19.732500        1.33830234E-18
   19.875000        1.34019627E-18
   20.017500        1.34209269E-18
   20.160000        1.34354863E-18
   20.302500        1.34424294E-18
   20.445000        1.34403749E-18
   20.587500        1.34300155E-18
   20.730000        1.34139175E-18
   20.872499        1.33959615E-18
   21.014999        1.33805635E-18
   21.157499        1.33717975E-18
   21.299999        1.33725688E-18
   21.442499        1.33840222E-18
   21.584999        1.34052301E-18
   21.727501        1.34333956E-18
   21.870001        1.34643797E-18
   22.012501        1.34936402E-18
   22.155001        1.35172055E-18
   22.297501        1.35325869E-18
   22.440001        1.35393305E-18
   22.582500        1.35391144E-18
   22.725000        1.35353435E-18
   22.867500        1.35323688E-18
   23.010000        1.35345577E-18
   23.152500        1.35453245E-18
   23.295000        1.35664217E-18
   23.437500        1.35975082E-18
   23.580000        1.36361458E-18
   23.722500        1.36781687E-18
   23.865000        1.37183738E-18
   24.007500        1.37514827E-18
   24.150000        1.37731352E-18
   24.292500        1.37807949E-18
   24.434999        1.37743077E-18
   24.577499        1.37560115E-18
   24.719999        1.37302686E-18
   24.862499        1.37025963E-18
   25.004999        1.36785223E-18
   25.147499        1.36624657E-18
   25.290001        1.36568863E-18
   25.432501        1.36619197E-18
   25.575001        1.36754452E-18
   25.717501        1.36936700E-18
   25.860001        1.37119528E-18
   26.002501        1.37257822E-18
   26.145000        1.37316883E-18
   26.287500        1.37279660E-18
   26.430000        1.37150599E-18
   26.572500        1.36955953E-18
   26.715000        1.36739314E-18
   26.857500        1.36553840E-18
   27.000000        1.36451486E-18
   27.142500        1.36472135E-18
   27.285000        1.36634335E-18
   27.427500        1.36931106E-18
   27.570000        1.37330376E-18
   27.712500        1.37781738E-18
   27.855000        1.38226668E-18
   27.997499        1.38610045E-18
   28.139999        1.38890584E-18
   28.282499        1.39047872E-18
   28.424999        1.39085064E-18
   28.567499        1.39026665E-18
   28.709999        1.38912680E-18
   28.852501        1.38790371E-18
   28.995001        1.38704757E-18
   29.137501        1.38689703E-18
   29.280001        1.38760540E-18
   29.422501        1.38910756E-18
   29.565001        1.39112599E-18
   29.707500        1.39322713E-18
   29.850000        1.39491427E-18
   29.992500        1.39574155E-18
   30.135000        1.39541730E-18
   30.277500        1.39388246E-18
   30.420000        1.39133123E-18
   30.562500        1.38817947E-18
   30.705000        1.38498510E-18
   30.847500        1.38234040E-18
   30.990000        1.38075676E-18
   31.132500        1.38057220E-18
   31.275000        1.38188762E-18
   31.417500        1.38454763E-18
   31.559999        1.38816768E-18
   31.702499        1.39219988E-18
   31.844999        1.39602982E-18
   31.987499        1.39909132E-18
   32.130001        1.40097171E-18
   32.272499        1.40149625E-18
   32.415001        1.40076337E-18
   32.557499        1.39912596E-18
   32.700001        1.39712181E-18
   32.842499        1.39536498E-18
   32.985001        1.39442220E-18
   33.127499        1.39470406E-18
   33.270000        1.39638655E-18
   33.412498        1.39938807E-18
   33.555000        1.40338863E-18
   33.697498        1.40789335E-18
   33.840000        1.41232415E-18
   33.982498        1.41612235E-18
   34.125000        1.41884502E-18
   34.267502        1.42024130E-18
   34.410000        1.42029341E-18
   34.552502        1.41921477E-18
   34.695000        1.41740376E-18
   34.837502        1.41535638E-18
   34.980000        1.41356419E-18
   35.122501        1.41240707E-18
   35.264999        1.41207837E-18
   35.407501        1.41255317E-18
   35.549999        1.41360545E-18
   35.692501        1.41486948E-18
   35.834999        1.41592631E-18
   35.977501        1.41640173E-18
   36.119999        1.41604387E-18
   36.262501        1.41477798E-18
   36.404999        1.41272709E-18
   36.547501        1.41019353E-18
   36.689999        1.40761408E-18
   36.832500        1.40548533E-18
   36.974998        1.40427485E-18
   37.117500        1.40433410E-18
   37.259998        1.40582447E-18
   37.402500        1.40867876E-18
   37.544998        1.41260849E-18
   37.687500        1.41715498E-18
   37.830002        1.42178047E-18
   37.972500        1.42597521E-18
   38.115002        1.42935052E-18
   38.257500        1.43170488E-18
   38.400002        1.43304512E-18
   38.542500        1.43356418E-18
   38.685001        1.43358217E-18
   38.827499        1.43346967E-18
   38.970001        1.43357162E-18
   39.112499        1.43413555E-18
   39.255001        1.43526486E-18
   39.397499        1.43689772E-18
   39.540001        1.43881771E-18
   39.682499        1.44069634E-18
   39.825001        1.44216262E-18
   39.967499        1.44288816E-18
   40.110001        1.44266813E-18
   40.252499        1.44148330E-18
   40.395000        1.43951885E-18
   40.537498        1.43713698E-18
   40.680000        1.43480681E-18
   40.822498        1.43300904E-18
   40.965000        1.43213760E-18
   41.107498        1.43242319E-18
   41.250000        1.43388843E-18
   41.392502        1.43635095E-18
   41.535000        1.43945929E-18
   41.677502        1.44275953E-18
   41.820000        1.44577802E-18
   41.962502        1.44810260E-18
   42.105000        1.44945618E-18
   42.247501        1.44974094E-18
   42.389999        1.44905644E-18
   42.532501        1.44767340E-18
   42.674999        1.44597540E-18
   42.817501        1.44437150E-18
   42.959999        1.44320611E-18
   43.102501        1.44268198E-18
   43.244999        1.44281806E-18
   43.387501        1.44345405E-18
   43.529999        1.44429778E-18
   43.672501        1.44499757E-18
   43.814999        1.44523280E-18
   43.957500        1.44478902E-18
   44.099998        1.44360894E-18
   44.242500        1.44181200E-18
   44.384998        1.43967529E-18
   44.527500        1.43758924E-18
   44.669998        1.43598420E-18
   44.812500        1.43525080E-18
   44.955002        1.43565901E-18
   45.097500        1.43729621E-18
   45.240002        1.44003800E-18
   45.382500        1.44356448E-18
   45.525002        1.44741677E-18
   45.667500        1.45108748E-18
   45.810001        1.45412251E-18
   45.952499        1.45621352E-18
   46.095001        1.45725298E-18
   46.237499        1.45734738E-18
   46.380001        1.45678469E-18
   46.522499        1.45596681E-18
   46.665001        1.45532730E-18
   46.807499        1.45524789E-18
   46.950001        1.45598894E-18
   47.092499        1.45764382E-18
   47.235001        1.46012185E-18
   47.377499        1.46316401E-18
   47.520000        1.46638733E-18
   47.662498        1.46936280E-18
   47.805000        1.47169824E-18
   47.947498        1.47312657E-18
   48.090000        1.47356250E-18
   48.232498        1.47312647E-18
   48.375000        1.47211379E-18
   48.517502        1.47092607E-18
   48.660000        1.46997822E-18
   48.802502        1.46960361E-18
   48.945000        1.46998380E-18
   49.087502        1.47111518E-18
   49.230000        1.47281524E-18
   49.372501        1.47476449E-18
   49.514999        1.47656920E-18
   49.657501        1.47783664E-18
   49.799999        1.47824703E-18
   49.942501        1.47761610E-18
   50.084999        1.47593671E-18
   50.227501        1.47339324E-18
   50.369999        1.47034042E-18
   50.512501        1.46724708E-18
   50.654999        1.46460930E-18
   50.797501        1.46285113E-18
   50.939999        1.46223767E-18
   51.082500        1.46282052E-18
   51.224998        1.46442991E-18
   51.367500        1.46671448E-18
   51.509998        1.46921928E-18
   51.652500        1.47147790E-18
   51.794998        1.47310465E-18
   51.937500        1.47386018E-18
   52.080002        1.47369030E-18
   52.222500        1.47272849E-18
   52.365002        1.47126780E-18
   52.507500        1.46970939E-18
   52.650002        1.46848774E-18
   52.792500        1.46798864E-18
   52.935001        1.46847306E-18
   53.077499        1.47001761E-18
   53.220001        1.47249202E-18
   53.362499        1.47557906E-18
   53.505001        1.47883981E-18
   53.647499        1.48180215E-18
   53.790001        1.48406221E-18
   53.932499        1.48536523E-18
   54.075001        1.48565381E-18
   54.217499        1.48507354E-18
   54.360001        1.48393700E-18
   54.502499        1.48265911E-18
   54.645000        1.48168034E-18
   54.787498        1.48138153E-18
   54.930000        1.48201659E-18
   55.072498        1.48366051E-18
   55.215000        1.48618962E-18
   55.357498        1.48929785E-18
   55.500000        1.49254712E-18
   55.642502        1.49545363E-18
   55.785000        1.49758682E-18
   55.927502        1.49865740E-18
   56.070000        1.49858244E-18
   56.212502        1.49750183E-18
   56.355000        1.49574138E-18
   56.497501        1.49374322E-18
   56.639999        1.49197151E-18
   56.782501        1.49081976E-18
   56.924999        1.49054007E-18
   57.067501        1.49120130E-18
   57.209999        1.49268143E-18
   57.352501        1.49469386E-18
   57.494999        1.49684163E-18
   57.637501        1.49868904E-18
   57.779999        1.49984875E-18
   57.922501        1.50006433E-18
   58.064999        1.49927386E-18
   58.207500        1.49763707E-18
   58.349998        1.49551039E-18
   58.492500        1.49337885E-18
   58.634998        1.49175241E-18
   58.777500        1.49105385E-18
   58.919998        1.49152803E-18
   59.062500        1.49319335E-18
   59.205002        1.49584312E-18
   59.347500        1.49909612E-18
   59.490002        1.50247546E-18
   59.632500        1.50550056E-18
   59.775002        1.50777314E-18
   59.917500        1.50904307E-18
   60.060001        1.50925214E-18
   60.202499        1.50854634E-18
   60.345001        1.50725222E-18
   60.487499        1.50581913E-18
   60.630001        1.50473335E-18
   60.772499        1.50441726E-18
   60.915001        1.50513143E-18
   61.057499        1.50691059E-18
   61.200001        1.50954940E-18
   61.342499        1.51264296E-18
   61.485001        1.51567519E-18
   61.627499        1.51813109E-18
   61.770000        1.51960575E-18
   61.912498        1.51988151E-18
   62.055000        1.51896530E-18
   62.197498        1.51707819E-18
   62.340000        1.51460854E-18
   62.482498        1.51204056E-18
   62.625000        1.50986828E-18
   62.767502        1.50851150E-18
   62.910000        1.50823967E-18
   63.052502        1.50911979E-18
   63.195000        1.51099883E-18
   63.337502        1.51352783E-18
   63.480000        1.51622785E-18
   63.622501        1.51859007E-18
   63.764999        1.52018260E-18
   63.907501        1.52074467E-18
   64.050003        1.52023627E-18
   64.192497        1.51884195E-18
   64.334999        1.51692341E-18
   64.477501        1.51494097E-18
   64.620003        1.51336126E-18
   64.762497        1.51257244E-18
   64.904999        1.51282049E-18
   65.047501        1.51417231E-18
   65.190002        1.51650982E-18
   65.332497        1.51955209E-18
   65.474998        1.52290454E-18
   65.617500        1.52613034E-18
   65.760002        1.52883481E-18
   65.902496        1.53074012E-18
   66.044998        1.53174225E-18
   66.187500        1.53192712E-18
   66.330002        1.53154041E-18
   66.472504        1.53092106E-18
   66.614998        1.53041710E-18
   66.757500        1.53030109E-18
   66.900002        1.53071613E-18
   67.042503        1.53164939E-18
   67.184998        1.53294683E-18
   67.327499        1.53435231E-18
   67.470001        1.53555875E-18
   67.612503        1.53626941E-18
   67.754997        1.53625379E-18
   67.897499        1.53539611E-18
   68.040001        1.53373079E-18
   68.182503        1.53145170E-18
   68.324997        1.52889147E-18
   68.467499        1.52646638E-18
   68.610001        1.52459696E-18
   68.752502        1.52361571E-18
   68.894997        1.52369543E-18
   69.037498        1.52480830E-18
   69.180000        1.52673842E-18
   69.322502        1.52912898E-18
   69.464996        1.53156347E-18
   69.607498        1.53364828E-18
   69.750000        1.53508281E-18
   69.892502        1.53570413E-18
   70.035004        1.53550581E-18
   70.177498        1.53463117E-18
   70.320000        1.53334842E-18
   70.462502        1.53200684E-18
   70.605003        1.53097638E-18
   70.747498        1.53057975E-18
   70.889999        1.53102270E-18
   71.032501        1.53234309E-18
   71.175003        1.53439202E-18
   71.317497        1.53686115E-18
   71.459999        1.53934972E-18
   71.602501        1.54145552E-18
   71.745003        1.54286545E-18
   71.887497        1.54342193E-18
   72.029999        1.54314493E-18
   72.172501        1.54221952E-18
   72.315002        1.54094535E-18
   72.457497        1.53967408E-18
   72.599998        1.53874423E-18
   72.742500        1.53842390E-18
   72.885002        1.53886882E-18
   73.027496        1.54009760E-18
   73.169998        1.54198409E-18
   73.312500        1.54427951E-18
   73.455002        1.54665642E-18
   73.597504        1.54877855E-18
   73.739998        1.55037418E-18
   73.882500        1.55130610E-18
   74.025002        1.55160327E-18
   74.167503        1.55145189E-18
   74.309998        1.55114625E-18
   74.452499        1.55101069E-18
   74.595001        1.55131510E-18
   74.737503        1.55221238E-18
   74.879997        1.55370327E-18
   75.022499        1.55563805E-18
   75.165001        1.55774663E-18
   75.307503        1.55969009E-18
   75.449997        1.56112194E-18
   75.592499        1.56175277E-18
   75.735001        1.56140753E-18
   75.877502        1.56007515E-18
   76.019997        1.55792448E-18
   76.162498        1.55529197E-18
   76.305000        1.55262607E-18
   76.447502        1.55040055E-18
   76.589996        1.54901388E-18
   76.732498        1.54870265E-18
   76.875000        1.54948961E-18
   77.017502        1.55117996E-18
   77.160004        1.55341128E-18
   77.302498        1.55573048E-18
   77.445000        1.55768945E-18
   77.587502        1.55892826E-18
   77.730003        1.55923732E-18
   77.872498        1.55859180E-18
   78.014999        1.55715768E-18
   78.157501        1.55526550E-18
   78.300003        1.55335896E-18
   78.442497        1.55191904E-18
   78.584999        1.55137476E-18
   78.727501        1.55201003E-18
   78.870003        1.55389890E-18
   79.012497        1.55688016E-18
   79.154999        1.56058789E-18
   79.297501        1.56453044E-18
   79.440002        1.56819940E-18
   79.582497        1.57117612E-18
   79.724998        1.57321563E-18
   79.867500        1.57427939E-18
   80.010002        1.57452444E-18
   80.152496        1.57425116E-18
   80.294998        1.57383250E-18
   80.437500        1.57363346E-18
   80.580002        1.57394128E-18
   80.722504        1.57490918E-18
   80.864998        1.57651681E-18
   81.007500        1.57856191E-18
   81.150002        1.58068621E-18
   81.292503        1.58243704E-18
   81.434998        1.58335790E-18
   81.577499        1.58309527E-18
   81.720001        1.58148806E-18
   81.862503        1.57861754E-18
   82.004997        1.57480310E-18
   82.147499        1.57054157E-18
   82.290001        1.56640432E-18
   82.432503        1.56292882E-18
   82.574997        1.56051789E-18
   82.717499        1.55937794E-18
   82.860001        1.55949839E-18
   83.002502        1.56066906E-18
   83.144997        1.56252650E-18
   83.287498        1.56462278E-18
   83.430000        1.56650513E-18
   83.572502        1.56779760E-18
   83.714996        1.56827333E-18
   83.857498        1.56790214E-18
   84.000000        1.56686258E-18
   84.142502        1.56550104E-18
   84.285004        1.56425603E-18
   84.427498        1.56355479E-18
   84.570000        1.56371102E-18
   84.712502        1.56485253E-18
   84.855003        1.56689349E-18
   84.997498        1.56955867E-18
   85.139999        1.57244408E-18
   85.282501        1.57510088E-18
   85.425003        1.57711962E-18
   85.567497        1.57820084E-18
   85.709999        1.57820488E-18
   85.852501        1.57717649E-18
   85.995003        1.57534087E-18
   86.137497        1.57307026E-18
   86.279999        1.57082084E-18
   86.422501        1.56904933E-18
   86.565002        1.56812206E-18
   86.707497        1.56823683E-18
   86.849998        1.56938517E-18
   86.992500        1.57135696E-18
   87.135002        1.57379766E-18
   87.277496        1.57629512E-18
   87.419998        1.57847175E-18
   87.562500        1.58006273E-18
   87.705002        1.58095804E-18
   87.847504        1.58121127E-18
   87.989998        1.58101595E-18
   88.132500        1.58065995E-18
   88.275002        1.58047001E-18
   88.417503        1.58075373E-18
   88.559998        1.58173766E-18
   88.702499        1.58351662E-18
   88.845001        1.58602049E-18
   88.987503        1.58901354E-18
   89.129997        1.59212995E-18
   89.272499        1.59495094E-18
   89.415001        1.59709903E-18
   89.557503        1.59833060E-18
   89.699997        1.59859819E-18
   89.842499        1.59806383E-18
   89.985001        1.59706139E-18
   90.127502        1.59602038E-18
   90.269997        1.59537394E-18
   90.412498        1.59547227E-18
   90.555000        1.59652114E-18
   90.697502        1.59854835E-18
   90.839996        1.60140016E-18
   90.982498        1.60476223E-18
   91.125000        1.60820238E-18
   91.267502        1.61123771E-18
   91.410004        1.61341641E-18
   91.552498        1.61440292E-18
   91.695000        1.61405561E-18
   91.837502        1.61246670E-18
   91.980003        1.60995135E-18