  -30.0000000         9.78447028E-19
  -29.8575001         9.80199823E-19
  -29.7150002         9.83398221E-19
  -29.5725002         9.87514375E-19
  -29.4300003         9.91906497E-19
  -29.2875004         9.95948929E-19
  -29.1450005         9.99149704E-19
  -29.0025005         1.00123999E-18
  -28.8600006         1.00221586E-18
  -28.7175007         1.00232742E-18
  -28.5750008         1.00202137E-18
  -28.4325008         1.00184714E-18
  -28.2900009         1.00234490E-18
  -28.1474991         1.00393422E-18
  -28.0049992         1.00682036E-18
  -27.8624992         1.01094602E-18
  -27.7199993         1.01599265E-18
  -27.5774994         1.02143902E-18
  -27.4349995         1.02666411E-18
  -27.2924995         1.03107670E-18
  -27.1499996         1.03423726E-18
  -27.0074997         1.03595004E-18
  -26.8649998         1.03630066E-18
  -26.7224998         1.03563654E-18
  -26.5799999         1.03449162E-18
  -26.4375000         1.03347832E-18
  -26.2950001         1.03316833E-18
  -26.1525002         1.03398321E-18
  -26.0100002         1.03611765E-18
  -25.8675003         1.03950433E-18
  -25.7250004         1.04382893E-18
  -25.5825005         1.04859070E-18
  -25.4400005         1.05320037E-18
  -25.2975006         1.05709732E-18
  -25.1550007         1.05986538E-18
  -25.0125008         1.06132008E-18
  -24.8700008         1.06154983E-18
  -24.7275009         1.06089946E-18
  -24.5849991         1.05989392E-18
  -24.4424992         1.05912785E-18
  -24.2999992         1.05913932E-18
  -24.1574993         1.06029676E-18
  -24.0149994         1.06272712E-18
  -23.8724995         1.06629826E-18
  -23.7299995         1.07064551E-18
  -23.5874996         1.07525094E-18
  -23.4449997         1.07954732E-18
  -23.3024998         1.08302685E-18
  -23.1599998         1.08534223E-18
  -23.0174999         1.08637683E-18
  -22.8750000         1.08626888E-18
  -22.7325001         1.08538752E-18
  -22.5900002         1.08426152E-18
  -22.4475002         1.08347105E-18
  -22.3050003         1.08352719E-18
  -22.1625004         1.08475845E-18
  -22.0200005         1.08724216E-18
  -21.8775005         1.09078829E-18
  -21.7350006         1.09498065E-18
  -21.5925007         1.09926875E-18
  -21.4500008         1.10308743E-18
  -21.3075008         1.10597160E-18
  -21.1650009         1.10765130E-18
  -21.0224991         1.10810428E-18
  -20.8799992         1.10755824E-18
  -20.7374992         1.10644733E-18
  -20.5949993         1.10532671E-18
  -20.4524994         1.10476557E-18
  -20.3099995         1.10523262E-18
  -20.1674995         1.10699999E-18
  -20.0249996         1.11008259E-18
  -19.8824997         1.11422666E-18
  -19.7399998         1.11895999E-18
  -19.5974998         1.12368671E-18
  -19.4549999         1.12781413E-18
  -19.3125000         1.13087956E-18
  -19.1700001         1.13265283E-18
  -19.0275002         1.13318326E-18
  -18.8850002         1.13279180E-18
  -18.7425003         1.13200091E-18
  -18.6000004         1.13143057E-18
  -18.4575005         1.13167128E-18
  -18.3150005         1.13316775E-18
  -18.1725006         1.13613071E-18
  -18.0300007         1.14048902E-18
  -17.8875008         1.14589671E-18
  -17.7450008         1.15178717E-18
  -17.6025009         1.15747559E-18
  -17.4599991         1.16228161E-18
  -17.3174992         1.16566375E-18
  -17.1749992         1.16732473E-18
  -17.0324993         1.16727602E-18
  -16.8899994         1.16583508E-18
  -16.7474995         1.16356571E-18
  -16.6049995         1.16116275E-18
  -16.4624996         1.15931338E-18
  -16.3199997         1.15856499E-18
  -16.1774998         1.15922632E-18
  -16.0349998         1.16131629E-18
  -15.8924999         1.16457466E-18
  -15.7500000         1.16852248E-18
  -15.6075001         1.17255819E-18
  -15.4650002         1.17607795E-18
  -15.3225002         1.17858865E-18
  -15.1800003         1.17980254E-18
  -15.0375004         1.17969304E-18
  -14.8950005         1.17849694E-18
  -14.7524996         1.17666721E-18
  -14.6099997         1.17477504E-18
  -14.4674997         1.17338837E-18
  -14.3249998         1.17294718E-18
  -14.1824999         1.17366724E-18
  -14.0400000         1.17549096E-18
  -13.8975000         1.17810237E-18
  -13.7550001         1.18099688E-18
  -13.6125002         1.18358927E-18
  -13.4700003         1.18533886E-18
  -13.3275003         1.18586091E-18
  -13.1850004         1.18500499E-18
  -13.0424995         1.18289123E-18
  -12.8999996         1.17989105E-18
  -12.7574997         1.17656423E-18
  -12.6149998         1.17356074E-18
  -12.4724998         1.17150023E-18
  -12.3299999         1.17085637E-18
  -12.1875000         1.17186584E-18
  -12.0450001         1.17447818E-18
  -11.9025002         1.17836521E-18
  -11.7600002         1.18298543E-18
  -11.6175003         1.18769560E-18
  -11.4750004         1.19187793E-18
  -11.3325005         1.19506185E-18
  -11.1899996         1.19701162E-18
  -11.0474997         1.19776125E-18
  -10.9049997         1.19759209E-18
  -10.7624998         1.19696509E-18
  -10.6199999         1.19641698E-18
  -10.4775000         1.19645079E-18
  -10.3350000         1.19743358E-18
  -10.1925001         1.19951963E-18
  -10.0500002         1.20261752E-18
  -9.90750027         1.20640270E-18
  -9.76500034         1.21037524E-18
  -9.62250042         1.21395579E-18
  -9.47999954         1.21660380E-18
  -9.33749962         1.21792647E-18
  -9.19499969         1.21776279E-18
  -9.05249977         1.21621741E-18
  -8.90999985         1.21363784E-18
  -8.76749992         1.21053995E-18
  -8.62500000         1.20749985E-18
  -8.48250008         1.20504013E-18
  -8.34000015         1.20352990E-18
  -8.19750023         1.20312438E-18
  -8.05500031         1.20374497E-18
  -7.91249990         1.20510951E-18
  -7.76999998         1.20679830E-18
  -7.62750006         1.20834275E-18
  -7.48500013         1.20932451E-18
  -7.34250021         1.20946368E-18
  -7.19999981         1.20868076E-18
  -7.05749989         1.20712328E-18
  -6.91499996         1.20513774E-18
  -6.77250004         1.20320306E-18
  -6.63000011         1.20182912E-18
  -6.48750019         1.20144406E-18
  -6.34499979         1.20229896E-18
  -6.20249987         1.20441106E-18
  -6.05999994         1.20755807E-18
  -5.91750002         1.21132742E-18
  -5.77500010         1.21520090E-18
  -5.63250017         1.21866338E-18
  -5.48999977         1.22130446E-18
  -5.34749985         1.22289451E-18
  -5.20499992         1.22342598E-18
  -5.06250000         1.22310968E-18
  -4.92000008         1.22233430E-18
  -4.77750015         1.22158674E-18
  -4.63500023         1.22135327E-18
  -4.49249983         1.22201915E-18
  -4.34999990         1.22377825E-18
  -4.20749998         1.22658394E-18
  -4.06500006         1.23014185E-18
  -3.92249990         1.23396364E-18
  -3.77999997         1.23746158E-18
  -3.63750005         1.24006885E-18
  -3.49499989         1.24135780E-18
  -3.35249996         1.24112919E-18
  -3.21000004         1.23945694E-18
  -3.06750011         1.23667089E-18
  -2.92499995         1.23329434E-18
  -2.78250003         1.22994592E-18
  -2.64000010         1.22722615E-18
  -2.49749994         1.22561035E-18
  -2.35500002         1.22536499E-18
  -2.21250010         1.22650588E-18
  -2.06999993         1.22879800E-18
  -1.92750001         1.23180356E-18
  -1.78499997         1.23497300E-18
  -1.64250004         1.23775709E-18
  -1.50000000         1.23972371E-18
  -1.35749996         1.24065036E-18
  -1.21500003         1.24057012E-18
  -1.07249999         1.23976589E-18
 -0.930000007         1.23870286E-18
 -0.787500024         1.23792469E-18
 -0.644999981         1.23793400E-18
 -0.502499998         1.23908027E-18
 -0.360000014         1.24148447E-18
 -0.217500001         1.24501074E-18
  -7.50000030E-02     1.24929098E-18
   6.75000027E-02     1.25379033E-18
  0.209999993         1.25791041E-18
  0.352499992         1.26109940E-18
  0.495000005         1.26296273E-18
  0.637499988         1.26334313E-18
  0.779999971         1.26235992E-18
  0.922500014         1.26039040E-18
   1.06500006         1.25800419E-18
   1.20749998         1.25584773E-18
   1.35000002         1.25451473E-18
   1.49249995         1.25442064E-18
   1.63499999         1.25571962E-18
   1.77750003         1.25827179E-18
   1.91999996         1.26167615E-18
   2.06250000         1.26535307E-18
   2.20499992         1.26866148E-18
   2.34750009         1.27102164E-18
   2.49000001         1.27202894E-18
   2.63249993         1.27152477E-18
   2.77500010         1.26963104E-18
   2.91750002         1.26672609E-18
   3.05999994         1.26338180E-18
   3.20250010         1.26025795E-18
   3.34500003         1.25798124E-18
   3.48749995         1.25702667E-18
   3.63000011         1.25762441E-18
   3.77250004         1.25971801E-18
   3.91499996         1.26297906E-18
   4.05749989         1.26688036E-18
   4.19999981         1.27080905E-18
   4.34250021         1.27419119E-18
   4.48500013         1.27660614E-18
   4.62750006         1.27785580E-18
   4.76999998         1.27798970E-18
   4.91249990         1.27727326E-18
   5.05499983         1.27612100E-18
   5.19750023         1.27500131E-18
   5.34000015         1.27433801E-18
   5.48250008         1.27442445E-18
   5.62500000         1.27536113E-18
   5.76749992         1.27703214E-18
   5.90999985         1.27912480E-18
   6.05249977         1.28119286E-18
   6.19500017         1.28275127E-18
   6.33750010         1.28338644E-18
   6.48000002         1.28285456E-18
   6.62249994         1.28114819E-18
   6.76499987         1.27850917E-18
   6.90749979         1.27538843E-18
   7.05000019         1.27235660E-18
   7.19250011         1.26999325E-18
   7.33500004         1.26877098E-18
   7.47749996         1.26897054E-18
   7.61999989         1.27063276E-18
   7.76249981         1.27355591E-18
   7.90500021         1.27733954E-18
   8.04749966         1.28145921E-18
   8.18999958         1.28536671E-18
   8.33250046         1.28859023E-18
   8.47500038         1.29082186E-18
   8.61750031         1.29197774E-18
   8.76000023         1.29221380E-18
   8.90250015         1.29188923E-18
   9.04500008         1.29149084E-18
   9.18750000         1.29151928E-18
   9.32999992         1.29237830E-18
   9.47249985         1.29428051E-18
   9.61499977         1.29719508E-18
   9.75749969         1.30085122E-18
   9.89999962         1.30479067E-18
   10.0424995         1.30846025E-18
   10.1850004         1.31131836E-18
   10.3275003         1.31293870E-18
   10.4700003         1.31309142E-18
   10.6125002         1.31178665E-18
   10.7550001         1.30927595E-18
   10.8975000         1.30601003E-18
   11.0400000         1.30256090E-18
   11.1824999         1.29951553E-18
   11.3249998         1.29736858E-18
   11.4674997         1.29642725E-18
   11.6099997         1.29675554E-18
   11.7524996         1.29816857E-18
   11.8950005         1.30028015E-18
   12.0375004         1.30259388E-18
   12.1800003         1.30461375E-18
   12.3225002         1.30595110E-18
   12.4650002         1.30640356E-18
   12.6075001         1.30599018E-18
   12.7500000         1.30494328E-18
   12.8924999         1.30365340E-18
   13.0349998         1.30259161E-18
   13.1774998         1.30221245E-18
   13.3199997         1.30286385E-18
   13.4624996         1.30471167E-18
   13.6049995         1.30769924E-18
   13.7475004         1.31154387E-18
   13.8900003         1.31578689E-18
   14.0325003         1.31987699E-18
   14.1750002         1.32328063E-18
   14.3175001         1.32559147E-18
   14.4600000         1.32661572E-18
   14.6025000         1.32641017E-18
   14.7449999         1.32526638E-18
   14.8874998         1.32364573E-18
   15.0299997         1.32207760E-18
   15.1724997         1.32105459E-18
   15.3149996         1.32093620E-18
   15.4575005         1.32188270E-18
   15.6000004         1.32383278E-18
   15.7425003         1.32651563E-18
   15.8850002         1.32950558E-18
   16.0275002         1.33230104E-18
   16.1700001         1.33442307E-18
   16.3125000         1.33551308E-18
   16.4549999         1.33541155E-18
   16.5974998         1.33420417E-18
   16.7399998         1.33221532E-18
   16.8824997         1.32994771E-18
   17.0249996         1.32798471E-18
   17.1674995         1.32686750E-18
   17.3099995         1.32698402E-18
   17.4524994         1.32848856E-18
   17.5949993         1.33127068E-18
   17.7374992         1.33498162E-18
   17.8799992         1.33910284E-18
   18.0224991         1.34304126E-18
   18.1650009         1.34623965E-18
   18.3075008         1.34826707E-18
   18.4500008         1.34889542E-18
   18.5925007         1.34813483E-18
   18.7350006         1.34623035E-18
   18.8775005         1.34361666E-18
   19.0200005         1.34083589E-18
   19.1625004         1.33843200E-18
   19.3050003         1.33684547E-18
   19.4475002         1.33632589E-18
   19.5900002         1.33688558E-18
   19.7325001         1.33830658E-18
   19.8750000         1.34019917E-18
   20.0174999         1.34209424E-18
   20.1599998         1.34354914E-18
   20.3024998         1.34424284E-18
   20.4449997         1.34403801E-18
   20.5874996         1.34300372E-18
   20.7299995         1.34139579E-18
   20.8724995         1.33960204E-18
   21.0149994         1.33806421E-18
   21.1574993         1.33718926E-18
   21.2999992         1.33726784E-18
   21.4424992         1.33841246E-18
   21.5849991         1.34053200E-18
   21.7275009         1.34334617E-18
   21.8700008         1.34644273E-18
   22.0125008         1.34936598E-18
   22.1550007         1.35172034E-18
   22.2975006         1.35325704E-18
   22.4400005         1.35393191E-18
   22.5825005         1.35391144E-18
   22.7250004         1.35353663E-18
   22.8675003         1.35324236E-18
   23.0100002         1.35346414E-18
   23.1525002         1.35454382E-18
   23.2950001         1.35665530E-18
   23.4375000         1.35976468E-18
   23.5799999         1.36362761E-18
   23.7224998         1.36782814E-18
   23.8649998         1.37184606E-18
   24.0074997         1.37515344E-18
   24.1499996         1.37731548E-18
   24.2924995         1.37807876E-18
   24.4349995         1.37742870E-18
   24.5774994         1.37559774E-18
   24.7199993         1.37302335E-18
   24.8624992         1.37025663E-18
   25.0049992         1.36785026E-18
   25.1474991         1.36624543E-18
   25.2900009         1.36568843E-18
   25.4325008         1.36619166E-18
   25.5750008         1.36754359E-18
   25.7175007         1.36936380E-18
   25.8600006         1.37118969E-18
   26.0025005         1.37257078E-18
   26.1450005         1.37316014E-18
   26.2875004         1.37278729E-18
   26.4300003         1.37149699E-18
   26.5725002         1.36955136E-18
   26.7150002         1.36738621E-18
   26.8575001         1.36553312E-18
   27.0000000         1.36451124E-18
   27.1424999         1.36471866E-18
   27.2849998         1.36634169E-18
   27.4274998         1.36930993E-18
   27.5699997         1.37330335E-18
   27.7124996         1.37781758E-18
   27.8549995         1.38226688E-18
   27.9974995         1.38609983E-18
   28.1399994         1.38890521E-18
   28.2824993         1.39047831E-18
   28.4249992         1.39085054E-18
   28.5674992         1.39026644E-18
   28.7099991         1.38912700E-18
   28.8525009         1.38790474E-18
   28.9950008         1.38704985E-18
   29.1375008         1.38689920E-18
   29.2800007         1.38760706E-18
   29.4225006         1.38910839E-18
   29.5650005         1.39112588E-18
   29.7075005         1.39322630E-18
   29.8500004         1.39491416E-18
   29.9925003         1.39574238E-18
   30.1350002         1.39542009E-18
   30.2775002         1.39388784E-18
   30.4200001         1.39133909E-18
   30.5625000         1.38818919E-18
   30.7049999         1.38499606E-18
   30.8474998         1.38235115E-18
   30.9899998         1.38076700E-18
   31.1324997         1.38058171E-18
   31.2749996         1.38189548E-18
   31.4174995         1.38455383E-18
   31.5599995         1.38817275E-18
   31.7024994         1.39220422E-18
   31.8449993         1.39603520E-18
   31.9874992         1.39909877E-18
   32.1300011         1.40098195E-18
   32.2724991         1.40150917E-18
   32.4150009         1.40077857E-18
   32.5574989         1.39914292E-18
   32.7000008         1.39713949E-18
   32.8424988         1.39538152E-18
   32.9850006         1.39443626E-18
   33.1274986         1.39471357E-18
   33.2700005         1.39639130E-18
   33.4124985         1.39938828E-18
   33.5550003         1.40338408E-18
   33.6974983         1.40788518E-18
   33.8400002         1.41231432E-18
   33.9824982         1.41611191E-18
   34.1250000         1.41883519E-18
   34.2675018         1.42023230E-18
   34.4099998         1.42028503E-18
   34.5525017         1.41920732E-18
   34.6949997         1.41739580E-18
   34.8375015         1.41534832E-18
   34.9799995         1.41355427E-18
   35.1225014         1.41239487E-18
   35.2649994         1.41206400E-18
   35.4075012         1.41253766E-18
   35.5499992         1.41358911E-18
   35.6925011         1.41485201E-18
   35.8349991         1.41590884E-18
   35.9775009         1.41638384E-18
   36.1199989         1.41602692E-18
   36.2625008         1.41476257E-18
   36.4049988         1.41271323E-18
   36.5475006         1.41018206E-18
   36.6899986         1.40760591E-18
   36.8325005         1.40548067E-18
   36.9749985         1.40427454E-18
   37.1175003         1.40433937E-18
   37.2599983         1.40583584E-18
   37.4025002         1.40869582E-18
   37.5449982         1.41262979E-18
   37.6875000         1.41717939E-18
   37.8300018         1.42180591E-18
   37.9724998         1.42599920E-18
   38.1150017         1.42937182E-18
   38.2574997         1.43172225E-18
   38.4000015         1.43305929E-18
   38.5424995         1.43357669E-18
   38.6850014         1.43359489E-18
   38.8274994         1.43348508E-18
   38.9700012         1.43359220E-18
   39.1124992         1.43416161E-18
   39.2550011         1.43529733E-18
   39.3974991         1.43693556E-18
   39.5400009         1.43885886E-18
   39.6824989         1.44073832E-18
   39.8250008         1.44220222E-18
   39.9674988         1.44292145E-18
   40.1100006         1.44269398E-18
   40.2524986         1.44150129E-18
   40.3950005         1.43952867E-18
   40.5374985         1.43714018E-18
   40.6800003         1.43480650E-18
   40.8224983         1.43300842E-18
   40.9650002         1.43213905E-18
   41.1074982         1.43242763E-18
   41.2500000         1.43389660E-18
   41.3925018         1.43636129E-18
   41.5349998         1.43946942E-18
   41.6775017         1.44276677E-18
   41.8199997         1.44577947E-18
   41.9625015         1.44809660E-18
   42.1049995         1.44944077E-18
   42.2475014         1.44971571E-18
   42.3899994         1.44902263E-18
   42.5325012         1.44763328E-18
   42.6749992         1.44593115E-18
   42.8175011         1.44432611E-18
   42.9599991         1.44316216E-18
   43.1025009         1.44264052E-18
   43.2449989         1.44277990E-18
   43.3875008         1.44341993E-18
   43.5299988         1.44426583E-18
   43.6725006         1.44496728E-18
   43.8149986         1.44520282E-18
   43.9575005         1.44475924E-18
   44.0999985         1.44357958E-18
   44.2425003         1.44178325E-18
   44.3849983         1.43964913E-18
   44.5275002         1.43756711E-18
   44.6699982         1.43596921E-18
   44.8125000         1.43524501E-18
   44.9550018         1.43566284E-18
   45.0974998         1.43730924E-18
   45.2400017         1.44005972E-18
   45.3824997         1.44359374E-18
   45.5250015         1.44745182E-18
   45.6674995         1.45112553E-18
   45.8100014         1.45416253E-18
   45.9524994         1.45625343E-18
   46.0950012         1.45729206E-18
   46.2374992         1.45738667E-18
   46.3800011         1.45682429E-18
   46.5224991         1.45600807E-18
   46.6650009         1.45537124E-18
   46.8074989         1.45529494E-18
   46.9500008         1.45603981E-18
   47.0924988         1.45769686E-18
   47.2350006         1.46017499E-18
   47.3774986         1.46321395E-18
   47.5200005         1.46643220E-18
   47.6624985         1.46939919E-18
   47.8050003         1.47172492E-18
   47.9474983         1.47314291E-18
   48.0900002         1.47356974E-18
   48.2324982         1.47312626E-18
   48.3750000         1.47210831E-18
   48.5175018         1.47091966E-18
   48.6599998         1.46997315E-18
   48.8025017         1.46960216E-18
   48.9449997         1.46998649E-18
   49.0875015         1.47112138E-18
   49.2299995         1.47282248E-18
   49.3725014         1.47477070E-18
   49.5149994         1.47657199E-18
   49.6575012         1.47783395E-18
   49.7999992         1.47823762E-18
   49.9425011         1.47759935E-18
   50.0849991         1.47591386E-18
   50.2275009         1.47336584E-18
   50.3699989         1.47031209E-18
   50.5125008         1.46722061E-18
   50.6549988         1.46458635E-18
   50.7975006         1.46283345E-18
   50.9399986         1.46222599E-18
   51.0825005         1.46281463E-18
   51.2249985         1.46442815E-18
   51.3675003         1.46671561E-18
   51.5099983         1.46922021E-18
   51.6525002         1.47147821E-18
   51.7949982         1.47310383E-18
   51.9375000         1.47385935E-18
   52.0800018         1.47369081E-18
   52.2224998         1.47273211E-18
   52.3650017         1.47127720E-18
   52.5074997         1.46972614E-18
   52.6500015         1.46851256E-18
   52.7924995         1.46802287E-18
   52.9350014         1.46851618E-18
   53.0774994         1.47006828E-18
   53.2200012         1.47254775E-18
   53.3624992         1.47563769E-18
   53.5050011         1.47889792E-18
   53.6474991         1.48185840E-18
   53.7900009         1.48411494E-18
   53.9324989         1.48541372E-18
   54.0750008         1.48569879E-18
   54.2174988         1.48511583E-18
   54.3600006         1.48397784E-18
   54.5024986         1.48270026E-18
   54.6450005         1.48172150E-18
   54.7874985         1.48142371E-18
   54.9300003         1.48205909E-18
   55.0724983         1.48370218E-18
   55.2150002         1.48622767E-18
   55.3574982         1.48932970E-18
   55.5000000         1.49257131E-18
   55.6425018         1.49546934E-18
   55.7849998         1.49759334E-18
   55.9275017         1.49865606E-18
   56.0699997         1.49857510E-18
   56.2125015         1.49749066E-18
   56.3549995         1.49572939E-18
   56.4975014         1.49373309E-18
   56.6399994         1.49196489E-18
   56.7825012         1.49081831E-18
   56.9249992         1.49054317E-18
   57.0675011         1.49120740E-18
   57.2099991         1.49268722E-18
   57.3525009         1.49469789E-18
   57.4949989         1.49684091E-18
   57.6375008         1.49868273E-18
   57.7799988         1.49983624E-18
   57.9225006         1.50004717E-18
   58.0649986         1.49925462E-18
   58.2075005         1.49761887E-18
   58.3499985         1.49549602E-18
   58.4925003         1.49337047E-18
   58.6349983         1.49175127E-18
   58.7775002         1.49105944E-18
   58.9199982         1.49153879E-18
   59.0625000         1.49320618E-18
   59.2050018         1.49585543E-18
   59.3474998         1.49910532E-18
   59.4900017         1.50248032E-18
   59.6324997         1.50550056E-18
   59.7750015         1.50776797E-18
   59.9174995         1.50903469E-18
   60.0600014         1.50924417E-18
   60.2024994         1.50854086E-18
   60.3450012         1.50725067E-18
   60.4874992         1.50582316E-18
   60.6300011         1.50474348E-18
   60.7724991         1.50443195E-18
   60.9150009         1.50514818E-18
   61.0574989         1.50692641E-18
   61.2000008         1.50956212E-18
   61.3424988         1.51265081E-18
   61.4850006         1.51567654E-18
   61.6274986         1.51812603E-18
   61.7700005         1.51959489E-18
   61.9124985         1.51986652E-18
   62.0550003         1.51894897E-18
   62.1974983         1.51706320E-18
   62.3400002         1.51459727E-18
   62.4824982         1.51203394E-18
   62.6250000         1.50986683E-18
   62.7675018         1.50851439E-18
   62.9099998         1.50824587E-18
   63.0525017         1.50912796E-18
   63.1949997         1.51100772E-18
   63.3375015         1.51353600E-18
   63.4799995         1.51623550E-18
   63.6225014         1.51859721E-18
   63.7649994         1.52019098E-18
   63.9075012         1.52075501E-18
   64.0500031         1.52024992E-18
   64.1924973         1.51885942E-18
   64.3349991         1.51694471E-18
   64.4775009         1.51496537E-18
   64.6200027         1.51338680E-18
   64.7624969         1.51259798E-18
   64.9049988         1.51284386E-18
   65.0475006         1.51419330E-18
   65.1900024         1.51652771E-18
   65.3324966         1.51956728E-18
   65.4749985         1.52291778E-18
   65.6175003         1.52614358E-18
   65.7600021         1.52884866E-18
   65.9024963         1.53075573E-18
   66.0449982         1.53176055E-18
   66.1875000         1.53194790E-18
   66.3300018         1.53156316E-18
   66.4725037         1.53094515E-18
   66.6149979         1.53044078E-18
   66.7574997         1.53032363E-18
   66.9000015         1.53073546E-18
   67.0425034         1.53166459E-18
   67.1849976         1.53295851E-18
   67.3274994         1.53436017E-18
   67.4700012         1.53556423E-18
   67.6125031         1.53627354E-18
   67.7549973         1.53625720E-18
   67.8974991         1.53539962E-18
   68.0400009         1.53373379E-18
   68.1825027         1.53145325E-18
   68.3249969         1.52888992E-18
   68.4674988         1.52646059E-18
   68.6100006         1.52458496E-18
   68.7525024         1.52359607E-18
   68.8949966         1.52366679E-18
   69.0374985         1.52477149E-18
   69.1800003         1.52669355E-18
   69.3225021         1.52907841E-18
   69.4649963         1.53150960E-18
   69.6074982         1.53359430E-18
   69.7500000         1.53503194E-18
   69.8925018         1.53565915E-18
   70.0350037         1.53546838E-18
   70.1774979         1.53460222E-18
   70.3199997         1.53332785E-18
   70.4625015         1.53199267E-18
   70.6050034         1.53096707E-18
   70.7474976         1.53057272E-18
   70.8899994         1.53101567E-18
   71.0325012         1.53233420E-18
   71.1750031         1.53438075E-18
   71.3174973         1.53684843E-18
   71.4599991         1.53933700E-18
   71.6025009         1.54144528E-18
   71.7450027         1.54286028E-18
   71.8874969         1.54342286E-18
   72.0299988         1.54315434E-18
   72.1725006         1.54223813E-18
   72.3150024         1.54097379E-18
   72.4574966         1.53971068E-18
   72.5999985         1.53878610E-18
   72.7425003         1.53846722E-18
   72.8850021         1.53891059E-18
   73.0274963         1.54013503E-18
   73.1699982         1.54201655E-18
   73.3125000         1.54430629E-18
   73.4550018         1.54667968E-18
   73.5975037         1.54879943E-18
   73.7399979         1.55039672E-18
   73.8824997         1.55133247E-18
   74.0250015         1.55163594E-18
   74.1675034         1.55149201E-18
   74.3099976         1.55119402E-18
   74.4524994         1.55106436E-18
   74.5950012         1.55137197E-18
   74.7375031         1.55226894E-18
   74.8799973         1.55375569E-18
   75.0224991         1.55568302E-18
   75.1650009         1.55778241E-18
   75.3075027         1.55971594E-18
   75.4499969         1.56113962E-18
   75.5924988         1.56176446E-18
   75.7350006         1.56141663E-18
   75.8775024         1.56008383E-18
   76.0199966         1.55793471E-18
   76.1624985         1.55530531E-18
   76.3050003         1.55264189E-18
   76.4475021         1.55041668E-18
   76.5899963         1.54902846E-18
   76.7324982         1.54871279E-18
   76.8750000         1.54949333E-18
   77.0175018         1.55117634E-18
   77.1600037         1.55340042E-18
   77.3024979         1.55571353E-18
   77.4449997         1.55766784E-18
   77.5875015         1.55890355E-18
   77.7300034         1.55921157E-18
   77.8724976         1.55856699E-18
   78.0149994         1.55713400E-18
   78.1575012         1.55524172E-18
   78.3000031         1.55333342E-18
   78.4424973         1.55188926E-18
   78.5849991         1.55133764E-18
   78.7275009         1.55196412E-18
   78.8700027         1.55384379E-18
   79.0124969         1.55681668E-18
   79.1549988         1.56051779E-18
   79.2975006         1.56445558E-18
   79.4400024         1.56812124E-18
   79.5824966         1.57109650E-18
   79.7249985         1.57313498E-18
   79.8675003         1.57419729E-18
   80.0100021         1.57443965E-18
   80.1524963         1.57416162E-18
   80.2949982         1.57373521E-18
   80.4375000         1.57352583E-18
   80.5800018         1.57382196E-18
   80.7225037         1.57477683E-18
   80.8649979         1.57637102E-18
   81.0074997         1.57840454E-18
   81.1500015         1.58051902E-18
   81.2925034         1.58226189E-18
   81.4349976         1.58317665E-18
   81.5774994         1.58290874E-18
   81.7200012         1.58129512E-18
   81.8625031         1.57841591E-18
   82.0049973         1.57459051E-18
   82.1474991         1.57031419E-18
   82.2900009         1.56616051E-18
   82.4325027         1.56266598E-18
   82.5749969         1.56023552E-18
   82.7174988         1.55907643E-18
   82.8600006         1.55918055E-18
   83.0025024         1.56033767E-18
   83.1449966         1.56218518E-18
   83.2874985         1.56427567E-18
   83.4300003         1.56615544E-18
   83.5725021         1.56744739E-18
   83.7149963         1.56792323E-18
   83.8574982         1.56755162E-18
   84.0000000         1.56650968E-18
   84.1425018         1.56514432E-18
   84.2850037         1.56389486E-18
   84.4274979         1.56318886E-18
   84.5699997         1.56334055E-18
   84.7125015         1.56447823E-18
   84.8550034         1.56651702E-18
   84.9974976         1.56918168E-18
   85.1399994         1.57206782E-18
   85.2825012         1.57472741E-18