  -30.0000000         4.89664411E-18
  -29.8575001         4.90199184E-18
  -29.7150002         4.91176994E-18
  -29.5725002         4.92439065E-18
  -29.4300003         4.93790388E-18
  -29.2875004         4.95037901E-18
  -29.1450005         4.96027292E-18
  -29.0025005         4.96671913E-18
  -28.8600006         4.96968127E-18
  -28.7175007         4.96993521E-18
  -28.5750008         4.96889007E-18
  -28.4325008         4.96827920E-18
  -28.2900009         4.96979376E-18
  -28.1474991         4.97472252E-18
  -28.0049992         4.98367096E-18
  -27.8624992         4.99642733E-18
  -27.7199993         5.01199114E-18
  -27.5774994         5.02876471E-18
  -27.4349995         5.04486702E-18
  -27.2924995         5.05850640E-18
  -27.1499996         5.06834324E-18
  -27.0074997         5.07375631E-18
  -26.8649998         5.07496812E-18
  -26.7224998         5.07300481E-18
  -26.5799999         5.06949012E-18
  -26.4375000         5.06632491E-18
  -26.2950001         5.06530914E-18
  -26.1525002         5.06778985E-18
  -26.0100002         5.07439530E-18
  -25.8675003         5.08492035E-18
  -25.7250004         5.09837361E-18
  -25.5825005         5.11318015E-18
  -25.4400005         5.12750485E-18
  -25.2975006         5.13962304E-18
  -25.1550007         5.14826832E-18
  -25.0125008         5.15288771E-18
  -24.8700008         5.15375087E-18
  -24.7275009         5.15189013E-18
  -24.5849991         5.14888953E-18
  -24.4424992         5.14655771E-18
  -24.2999992         5.14656143E-18
  -24.1574993         5.15007943E-18
  -24.0149994         5.15756831E-18
  -23.8724995         5.16866618E-18
  -23.7299995         5.18226917E-18
  -23.5874996         5.19675517E-18
  -23.4449997         5.21031307E-18
  -23.3024998         5.22130796E-18
  -23.1599998         5.22861362E-18
  -23.0174999         5.23183879E-18
  -22.8750000         5.23141155E-18
  -22.7325001         5.22848954E-18
  -22.5900002         5.22473000E-18
  -22.4475002         5.22195522E-18
  -22.3050003         5.22178276E-18
  -22.1625004         5.22529828E-18
  -22.0200005         5.23283224E-18
  -21.8775005         5.24389619E-18
  -21.7350006         5.25727956E-18
  -21.5925007         5.27129862E-18
  -21.4500008         5.28413646E-18
  -21.3075008         5.29421441E-18
  -21.1650009         5.30050760E-18
  -21.0224991         5.30275505E-18
  -20.8799992         5.30150436E-18
  -20.7374992         5.29800125E-18
  -20.5949993         5.29393441E-18
  -20.4524994         5.29109057E-18
  -20.3099995         5.29099255E-18
  -20.1674995         5.29458706E-18
  -20.0249996         5.30205360E-18
  -19.8824997         5.31276559E-18
  -19.7399998         5.32541980E-18
  -19.5974998         5.33830521E-18
  -19.4549999         5.34965454E-18
  -19.3125000         5.35801527E-18
  -19.1700001         5.36255484E-18
  -19.0275002         5.36323685E-18
  -18.8850002         5.36083968E-18
  -18.7425003         5.35680014E-18
  -18.6000004         5.35292728E-18
  -18.4575005         5.35103056E-18
  -18.3150005         5.35255381E-18
  -18.1725006         5.35827294E-18
  -18.0300007         5.36812921E-18
  -17.8875008         5.38122968E-18
  -17.7450008         5.39600974E-18
  -17.6025009         5.41053462E-18
  -17.4599991         5.42287740E-18
  -17.3174992         5.43149744E-18
  -17.1749992         5.43554691E-18
  -17.0324993         5.43504109E-18
  -16.8899994         5.43085679E-18
  -16.7474995         5.42456195E-18
  -16.6049995         5.41810580E-18
  -16.4624996         5.41342851E-18
  -16.3199997         5.41208310E-18
  -16.1774998         5.41492943E-18
  -16.0349998         5.42197494E-18
  -15.8924999         5.43238046E-18
  -15.7500000         5.44464134E-18
  -15.6075001         5.45689478E-18
  -15.4650002         5.46729534E-18
  -15.3225002         5.47439048E-18
  -15.1800003         5.47740473E-18
  -15.0375004         5.47639805E-18
  -14.8950005         5.47224560E-18
  -14.7524996         5.46645947E-18
  -14.6099997         5.46087683E-18
  -14.4674997         5.45727984E-18
  -14.3249998         5.45703375E-18
  -14.1824999         5.46079660E-18
  -14.0400000         5.46838391E-18
  -13.8975000         5.47879811E-18
  -13.7550001         5.49043034E-18
  -13.6125002         5.50138056E-18
  -13.4700003         5.50984427E-18
  -13.3275003         5.51446986E-18
  -13.1850004         5.51463613E-18
  -13.0424995         5.51057591E-18
  -12.8999996         5.50333684E-18
  -12.7574997         5.49457700E-18
  -12.6149998         5.48624646E-18
  -12.4724998         5.48020846E-18
  -12.3299999         5.47787912E-18
  -12.1875000         5.47995823E-18
  -12.0450001         5.48630188E-18
  -11.9025002         5.49596294E-18
  -11.7600002         5.50739871E-18
  -11.6175003         5.51879188E-18
  -11.4750004         5.52842771E-18
  -11.3325005         5.53504681E-18
  -11.1899996         5.53809911E-18
  -11.0474997         5.53784971E-18
  -10.9049997         5.53531192E-18
  -10.7624998         5.53203049E-18
  -10.6199999         5.52975203E-18
  -10.4775000         5.53005519E-18
  -10.3350000         5.53401283E-18
  -10.1925001         5.54195377E-18
  -10.0500002         5.55337341E-18
  -9.90750027         5.56700576E-18
  -9.76500034         5.58105666E-18
  -9.62250042         5.59353592E-18
  -9.47999954         5.60264566E-18
  -9.33749962         5.60712857E-18
  -9.19499969         5.60651604E-18
  -9.05249977         5.60122291E-18
  -8.90999985         5.59246803E-18
  -8.76749992         5.58203729E-18
  -8.62500000         5.57193576E-18
  -8.48250008         5.56400103E-18
  -8.34000015         5.55956279E-18
  -8.19750023         5.55919966E-18
  -8.05500031         5.56265810E-18
  -7.91249990         5.56892895E-18
  -7.76999998         5.57648111E-18
  -7.62750006         5.58358246E-18
  -7.48500013         5.58866838E-18
  -7.34250021         5.59066064E-18
  -7.19999981         5.58919571E-18
  -7.05749989         5.58469874E-18
  -6.91499996         5.57829926E-18
  -6.77250004         5.57160199E-18
  -6.63000011         5.56635063E-18
  -6.48750019         5.56406927E-18
  -6.34499979         5.56574100E-18
  -6.20249987         5.57160199E-18
  -6.05999994         5.58108892E-18
  -5.91750002         5.59294738E-18
  -5.77500010         5.60548661E-18
  -5.63250017         5.61691701E-18
  -5.48999977         5.62570250E-18
  -5.34749985         5.63086410E-18
  -5.20499992         5.63216402E-18
  -5.06250000         5.63014487E-18
  -4.92000008         5.62600897E-18
  -4.77750015         5.62136766E-18
  -4.63500023         5.61790880E-18
  -4.49249983         5.61704605E-18
  -4.34999990         5.61962479E-18
  -4.20749998         5.62574137E-18
  -4.06500006         5.63472125E-18
  -3.92249990         5.64525456E-18
  -3.77999997         5.65566918E-18
  -3.63750005         5.66428096E-18
  -3.49499989         5.66975110E-18
  -3.35249996         5.67136907E-18
  -3.21000004         5.66920930E-18
  -3.06750011         5.66412628E-18
  -2.92499995         5.65758824E-18
  -2.78250003         5.65139142E-18
  -2.64000010         5.64730059E-18
  -2.49749994         5.64669841E-18
  -2.35500002         5.65030574E-18
  -2.21250010         5.65802706E-18
  -2.06999993         5.66895866E-18
  -1.92750001         5.68155580E-18
  -1.78499997         5.69393290E-18
  -1.64250004         5.70422882E-18
  -1.50000000         5.71098068E-18
  -1.35749996         5.71341259E-18
  -1.21500003         5.71159155E-18
  -1.07249999         5.70641009E-18
 -0.930000007         5.69940181E-18
 -0.787500024         5.69243033E-18
 -0.644999981         5.68731298E-18
 -0.502499998         5.68545885E-18
 -0.360000014         5.68759339E-18
 -0.217500001         5.69362023E-18
  -7.50000030E-02     5.70264560E-18
   6.75000027E-02     5.71315989E-18
  0.209999993         5.72334207E-18
  0.352499992         5.73142445E-18
  0.495000005         5.73604508E-18
  0.637499988         5.73652485E-18
  0.779999971         5.73300933E-18
  0.922500014         5.72644606E-18
   1.06500006         5.71839222E-18
   1.20749998         5.71070523E-18
   1.35000002         5.70516312E-18
   1.49249995         5.70311006E-18
   1.63499999         5.70518421E-18
   1.77750003         5.71120030E-18
   1.91999996         5.72019506E-18
   2.06250000         5.73063325E-18
   2.20499992         5.74072031E-18
   2.34750009         5.74876588E-18
   2.49000001         5.75351968E-18
   2.63249993         5.75441676E-18
   2.77500010         5.75169037E-18
   2.91750002         5.74631949E-18
   3.05999994         5.73983605E-18
   3.20250010         5.73401518E-18
   3.34500003         5.73051621E-18
   3.48749995         5.73054516E-18
   3.63000011         5.73460455E-18
   3.77250004         5.74239204E-18
   3.91499996         5.75286290E-18
   4.05749989         5.76444715E-18
   4.19999981         5.77537669E-18
   4.34250021         5.78405092E-18
   4.48500013         5.78936142E-18
   4.62750006         5.79091280E-18
   4.76999998         5.78909631E-18
   4.91249990         5.78500301E-18
   5.05499983         5.78019667E-18
   5.19750023         5.77639206E-18
   5.34000015         5.77510744E-18
   5.48250008         5.77734579E-18
   5.62500000         5.78338463E-18
   5.76749992         5.79270406E-18
   5.90999985         5.80407365E-18
   6.05249977         5.81579025E-18
   6.19500017         5.82601379E-18
   6.33750010         5.83314161E-18
   6.48000002         5.83613600E-18
   6.62249994         5.83474179E-18
   6.76499987         5.82954710E-18
   6.90749979         5.82186672E-18
   7.05000019         5.81349152E-18
   7.19250011         5.80633393E-18
   7.33500004         5.80206443E-18
   7.47749996         5.80178981E-18
   7.61999989         5.80585416E-18
   7.76249981         5.81378227E-18
   7.90500021         5.82438259E-18
   8.04749966         5.83598711E-18
   8.18999958         5.84678140E-18
   8.33250046         5.85516612E-18
   8.47500038         5.86007089E-18
   8.61750031         5.86116277E-18
   8.76000023         5.85890456E-18
   8.90250015         5.85444771E-18
   9.04500008         5.84937999E-18
   9.18750000         5.84538512E-18
   9.32999992         5.84388544E-18
   9.47249985         5.84573833E-18
   9.61499977         5.85106372E-18
   9.75749969         5.85921848E-18
   9.89999962         5.86893330E-18
   10.0424995         5.87857161E-18
   10.1850004         5.88646374E-18
   10.3275003         5.89124153E-18
   10.4700003         5.89212041E-18
   10.6125002         5.88906233E-18
   10.7550001         5.88279685E-18
   10.8975000         5.87468427E-18
   11.0400000         5.86645631E-18
   11.1824999         5.85986988E-18
   11.3249998         5.85635809E-18
   11.4674997         5.85673735E-18
   11.6099997         5.86104531E-18
   11.7524996         5.86854287E-18
   11.8950005         5.87787305E-18
   12.0375004         5.88735254E-18
   12.1800003         5.89532739E-18
   12.3225002         5.90051133E-18
   12.4650002         5.90225007E-18
   12.6075001         5.90065195E-18
   12.7500000         5.89656279E-18
   12.8924999         5.89139456E-18
   13.0349998         5.88683887E-18
   13.1774998         5.88452565E-18
   13.3199997         5.88568660E-18
   13.4624996         5.89088998E-18
   13.6049995         5.89990749E-18
   13.7475004         5.91173369E-18
   13.8900003         5.92477337E-18
   14.0325003         5.93714882E-18
   14.1750002         5.94707623E-18
   14.3175001         5.95322797E-18
   14.4600000         5.95500020E-18
   14.6025000         5.95263653E-18
   14.7449999         5.94717755E-18
   14.8874998         5.94025116E-18
   15.0299997         5.93374828E-18
   15.1724997         5.92945190E-18
   15.3149996         5.92869420E-18
   15.4575005         5.93210136E-18
   15.6000004         5.93947609E-18
   15.7425003         5.94983859E-18
   15.8850002         5.96161765E-18
   16.0275002         5.97296077E-18
   16.1700001         5.98209781E-18
   16.3125000         5.98769865E-18
   16.4549999         5.98914084E-18
   16.5974998         5.98663986E-18
   16.7399998         5.98120115E-18
   16.8824997         5.97441206E-18
   17.0249996         5.96811474E-18
   17.1674995         5.96402392E-18
   17.3099995         5.96338492E-18
   17.4524994         5.96672383E-18
   17.5949993         5.97375321E-18
   17.7374992         5.98343909E-18
   17.8799992         5.99421270E-18
   18.0224991         6.00428652E-18
   18.1650009         6.01200701E-18
   18.3075008         6.01618013E-18
   18.4500008         6.01631248E-18
   18.5925007         6.01270887E-18
   18.7350006         6.00642147E-18
   18.8775005         5.99903888E-18
   19.0200005         5.99236933E-18
   19.1625004         5.98807212E-18
   19.3050003         5.98731856E-18
   19.4475002         5.99055532E-18
   19.5900002         5.99742009E-18
   19.7325001         6.00682514E-18
   19.8750000         6.01719302E-18
   20.0174999         6.02678294E-18
   20.1599998         6.03404517E-18
   20.3024998         6.03793168E-18
   20.4449997         6.03809670E-18
   20.5874996         6.03495838E-18
   20.7299995         6.02960983E-18
   20.8724995         6.02359829E-18
   21.0149994         6.01861535E-18
   21.1574993         6.01615284E-18
   21.2999992         6.01719839E-18
   21.4424992         6.02202127E-18
   21.5849991         6.03011110E-18
   21.7275009         6.04027425E-18
   21.8700008         6.05087705E-18
   22.0125008         6.06018656E-18
   22.1550007         6.06672666E-18
   22.2975006         6.06958622E-18
   22.4400005         6.06860147E-18
   22.5825005         6.06438367E-18
   22.7250004         6.05818767E-18
   22.8675003         6.05165460E-18
   23.0100002         6.04648266E-18
   23.1525002         6.04409169E-18
   23.2950001         6.04534115E-18
   23.4375000         6.05036213E-18
   23.5799999         6.05852268E-18
   23.7224998         6.06854811E-18
   23.8649998         6.07876462E-18
   24.0074997         6.08743554E-18
   24.1499996         6.09311124E-18
   24.2924995         6.09493104E-18
   24.4349995         6.09280601E-18
   24.5774994         6.08743844E-18
   24.7199993         6.08018034E-18
   24.8624992         6.07275515E-18
   25.0049992         6.06690450E-18
   25.1474991         6.06404080E-18
   25.2900009         6.06497345E-18
   25.4325008         6.06976035E-18
   25.5750008         6.07771245E-18
   25.7175007         6.08754266E-18
   25.8600006         6.09762310E-18
   26.0025005         6.10631180E-18
   26.1450005         6.11227619E-18
   26.2875004         6.11476062E-18
   26.4300003         6.11374237E-18
   26.5725002         6.10993899E-18
   26.7150002         6.10466654E-18
   26.8575001         6.09957111E-18
   27.0000000         6.09627976E-18
   27.1424999         6.09605848E-18
   27.2849998         6.09954298E-18
   27.4274998         6.10660504E-18
   27.5699997         6.11637942E-18
   27.7124996         6.12744751E-18
   27.8549995         6.13812889E-18
   27.9974995         6.14682215E-18
   28.1399994         6.15231959E-18
   28.2824993         6.15404302E-18
   28.4249992         6.15215332E-18
   28.5674992         6.14751780E-18
   28.7099991         6.14153853E-18
   28.8525009         6.13587730E-18
   28.9950008         6.13212356E-18
   29.1375008         6.13147091E-18
   29.2800007         6.13446696E-18
   29.4225006         6.14089167E-18
   29.5650005         6.14979669E-18
   29.7075005         6.15970176E-18
   29.8500004         6.16890125E-18
   29.9925003         6.17582475E-18
   30.1350002         6.17936012E-18
   30.2775002         6.17908178E-18
   30.4200001         6.17532968E-18
   30.5625000         6.16913410E-18
   30.7049999         6.16200174E-18
   30.8474998         6.15561590E-18
   30.9899998         6.15149985E-18
   31.1324997         6.15072065E-18
   31.2749996         6.15367327E-18
   31.4174995         6.15999624E-18
   31.5599995         6.16863324E-18
   31.7024994         6.17803953E-18
   31.8449993         6.18648959E-18
   31.9874992         6.19243082E-18
   32.1300011         6.19481599E-18
   32.2724991         6.19332541E-18
   32.4150009         6.18844670E-18
   32.5574989         6.18137637E-18
   32.7000008         6.17377913E-18
   32.8424988         6.16744831E-18
   32.9850006         6.16394809E-18
   33.1274986         6.16430502E-18
   33.2700005         6.16881357E-18
   33.4124985         6.17698032E-18
   33.5550003         6.18762324E-18
   33.6974983         6.19909127E-18
   33.8400002         6.20957744E-18
   33.9824982         6.21745965E-18
   34.1250000         6.22161333E-18
   34.2675018         6.22163029E-18
   34.4099998         6.21790508E-18
   34.5525017         6.21155482E-18
   34.6949997         6.20419581E-18
   34.8375015         6.19761228E-18
   34.9799995         6.19339076E-18
   35.1225014         6.19260204E-18
   35.2649994         6.19559437E-18
   35.4075012         6.20194298E-18
   35.5499992         6.21056055E-18
   35.6925011         6.21993168E-18
   35.8349991         6.22843013E-18
   35.9775009         6.23464557E-18
   36.1199989         6.23765443E-18
   36.2625008         6.23720114E-18
   36.4049988         6.23374642E-18
   36.5475006         6.22837595E-18
   36.6899986         6.22259024E-18
   36.8325005         6.21800600E-18
   36.9749985         6.21602283E-18
   37.1175003         6.21753327E-18
   37.2599983         6.22273086E-18
   37.4025002         6.23106222E-18
   37.5449982         6.24134449E-18
   37.6875000         6.25201553E-18
   37.8300018         6.26146648E-18
   37.9724998         6.26837179E-18
   38.1150017         6.27196299E-18
   38.2574997         6.27217061E-18
   38.4000015         6.26962372E-18
   38.5424995         6.26550974E-18
   38.6850014         6.26133000E-18
   38.8274994         6.25859286E-18
   38.9700012         6.25850973E-18
   39.1124992         6.26174359E-18
   39.2550011         6.26826012E-18
   39.3974991         6.27731733E-18
   39.5400009         6.28759795E-18
   39.6824989         6.29746580E-18
   39.8250008         6.30530127E-18
   39.9674988         6.30984083E-18
   40.1100006         6.31044881E-18
   40.2524986         6.30725589E-18
   40.3950005         6.30113476E-18
   40.5374985         6.29351766E-18
   40.6800003         6.28610116E-18
   40.8224983         6.28050156E-18
   40.9650002         6.27793482E-18
   41.1074982         6.27898410E-18
   41.2500000         6.28348934E-18
   41.3925018         6.29058614E-18
   41.5349998         6.29887366E-18
   41.6775017         6.30668597E-18
   41.8199997         6.31242164E-18
   41.9625015         6.31486471E-18
   42.1049995         6.31344072E-18
   42.2475014         6.30835025E-18
   42.3899994         6.30054622E-18
   42.5325012         6.29155063E-18
   42.6749992         6.28315144E-18
   42.8175011         6.27704271E-18
   42.9599991         6.27448176E-18
   43.1025009         6.27605257E-18
   43.2449989         6.28156573E-18
   43.3875008         6.29012126E-18
   43.5299988         6.30030882E-18
   43.6725006         6.31049472E-18
   43.8149986         6.31914496E-18
   43.9575005         6.32511307E-18
   44.0999985         6.32785228E-18
   44.2425003         6.32750900E-18
   44.3849983         6.32488683E-18
   44.5275002         6.32127785E-18
   44.6699982         6.31819536E-18
   44.8125000         6.31705178E-18
   44.9550018         6.31885131E-18
   45.0974998         6.32396494E-18
   45.2400017         6.33203988E-18
   45.3824997         6.34206655E-18
   45.5250015         6.35259242E-18
   45.6674995         6.36202518E-18
   45.8100014         6.36896233E-18
   45.9524994         6.37247329E-18
   46.0950012         6.37227394E-18
   46.2374992         6.36877001E-18
   46.3800011         6.36296858E-18
   46.5224991         6.35627792E-18
   46.6650009         6.35023951E-18
   46.8074989         6.34623471E-18
   46.9500008         6.34522059E-18
   47.0924988         6.34754248E-18
   47.2350006         6.35285960E-18
   47.3774986         6.36021158E-18
   47.5200005         6.36821290E-18
   47.6624985         6.37534485E-18
   47.8050003         6.38028436E-18
   47.9474983         6.38219473E-18
   48.0900002         6.38090723E-18
   48.2324982         6.37695827E-18
   48.3750000         6.37147530E-18
   48.5175018         6.36593691E-18
   48.6599998         6.36186884E-18
   48.8025017         6.36053666E-18
   48.9449997         6.36269643E-18
   49.0875015         6.36844451E-18
   49.2299995         6.37718657E-18
   49.3725014         6.38773684E-18
   49.5149994         6.39852617E-18
   49.6575012         6.40788614E-18
   49.7999992         6.41436792E-18
   49.9425011         6.41702979E-18
   50.0849991         6.41563434E-18
   50.2275009         6.41070682E-18
   50.3699989         6.40343839E-18
   50.5125008         6.39544575E-18
   50.6549988         6.38844491E-18
   50.7975006         6.38390576E-18
   50.9399986         6.38276880E-18
   51.0825005         6.38527764E-18
   51.2249985         6.39096078E-18
   51.3675003         6.39874745E-18
   51.5099983         6.40719834E-18
   51.6525002         6.41479227E-18
   51.7949982         6.42022105E-18
   51.9375000         6.42264593E-18
   52.0800018         6.42185970E-18
   52.2224998         6.41833715E-18
   52.3650017         6.41314907E-18
   52.5074997         6.40775172E-18
   52.6500015         6.40369068E-18
   52.7924995         6.40227454E-18
   52.9350014         6.40429576E-18
   53.0774994         6.40985855E-18
   53.2200012         6.41836155E-18
   53.3624992         6.42862893E-18
   53.5050011         6.43916804E-18
   53.6474991         6.44847424E-18
   53.7900009         6.45533322E-18
   53.9324989         6.45904436E-18
   54.0750008         6.45953571E-18
   54.2174988         6.45735485E-18
   54.3600006         6.45354403E-18
   54.5024986         6.44942384E-18
   54.6450005         6.44632687E-18
   54.7874985         6.44532020E-18
   54.9300003         6.44697911E-18
   55.0724983         6.45125149E-18
   55.2150002         6.45745369E-18
   55.3574982         6.46440573E-18
   55.5000000         6.47068610E-18
   55.6425018         6.47494815E-18
   55.7849998         6.47622573E-18
   55.9275017         6.47415530E-18
   56.0699997         6.46906193E-18
   56.2125015         6.46189524E-18
   56.3549995         6.45403951E-18
   56.4975014         6.44703329E-18
   56.6399994         6.44227493E-18
   56.7825012         6.44076119E-18
   56.9249992         6.44290028E-18
   57.0675011         6.44843701E-18
   57.2099991         6.45649416E-18
   57.3525009         6.46573046E-18
   57.4949989         6.47458874E-18
   57.6375008         6.48160199E-18
   57.7799988         6.48569075E-18
   57.9225006         6.48639385E-18
   58.0649986         6.48397600E-18
   58.2075005         6.47937026E-18
   58.3499985         6.47398614E-18
   58.4925003         6.46940149E-18
   58.6349983         6.46702831E-18
   58.7775002         6.46781992E-18
   58.9199982         6.47208197E-18
   59.0625000         6.47942485E-18
   59.2050018         6.48884809E-18
   59.3474998         6.49894218E-18
   59.4900017         6.50815325E-18
   59.6324997         6.51507716E-18
   59.7750015         6.51872214E-18
   59.9174995         6.51870559E-18
   60.0600014         6.51534021E-18
   60.2024994         6.50959130E-18
   60.3450012         6.50289652E-18
   60.4874992         6.49688457E-18
   60.6300011         6.49303776E-18
   60.7724991         6.49238222E-18
   60.9150009         6.49527198E-18
   61.0574989         6.50132446E-18
   61.2000008         6.50951561E-18
   61.3424988         6.51840822E-18
   61.4850006         6.52646330E-18
   61.6274986         6.53235242E-18
   61.7700005         6.53521694E-18
   61.9124985         6.53483272E-18
   62.0550003         6.53163815E-18
   62.1974983         6.52665687E-18
   62.3400002         6.52129798E-18
   62.4824982         6.51708969E-18
   62.6250000         6.51537536E-18
   62.7675018         6.51703096E-18
   62.9099998         6.52226743E-18
   63.0525017         6.53055992E-18
   63.1949997         6.54073341E-18
   63.3375015         6.55119766E-18
   63.4799995         6.56027431E-18
   63.6225014         6.56654765E-18
   63.7649994         6.56915451E-18
   63.9075012         6.56794889E-18
   64.0500031         6.56351231E-18
   64.1924973         6.55701605E-18
   64.3349991         6.54997302E-18
   64.4775009         6.54394039E-18
   64.6200027         6.54021932E-18
   64.7624969         6.53961506E-18
   64.9049988         6.54228065E-18
   65.0475006         6.54768793E-18
   65.1900024         6.55472434E-18
   65.3324966         6.56190510E-18
   65.4749985         6.56768254E-18
   65.6175003         6.57077289E-18
   65.7600021         6.57044946E-18
   65.9024963         6.56671474E-18
   66.0449982         6.56031567E-18
   66.1875000         6.55259229E-18
   66.3300018         6.54519770E-18
   66.4725037         6.53974989E-18
   66.6149979         6.53750699E-18
   66.7574997         6.53912206E-18
   66.9000015         6.54453307E-18
   67.0425034         6.55298437E-18
   67.1849976         6.56317937E-18
   67.3274994         6.57352078E-18
   67.4700012         6.58240263E-18
   67.6125031         6.58850971E-18
   67.7549973         6.59106280E-18
   67.8974991         6.58998085E-18
   68.0400009         6.58590285E-18
   68.1825027         6.58006792E-18
   68.3249969         6.57406093E-18
   68.4674988         6.56947918E-18
   68.6100006         6.56759114E-18
   68.7525024         6.56907469E-18
   68.8949966         6.57388474E-18
   69.0374985         6.58128594E-18
   69.1800003         6.59003007E-18
   69.3225021         6.59862696E-18
   69.4649963         6.60565096E-18
   69.6074982         6.61001351E-18
   69.7500000         6.61116329E-18
   69.8925018         6.60918426E-18
   70.0350037         6.60477663E-18
   70.1774979         6.59912864E-18
   70.3199997         6.59369737E-18
   70.4625015         6.58992419E-18
   70.6050034         6.58894108E-18
   70.7474976         6.59133081E-18
   70.8899994         6.59698748E-18
   71.0325012         6.60513066E-18
   71.1750031         6.61446746E-18
   71.3174973         6.62346967E-18
   71.4599991         6.63070047E-18
   71.6025009         6.63510976E-18
   71.7450027         6.63623389E-18
   71.8874969         6.63426727E-18
   72.0299988         6.62999447E-18
   72.1725006         6.62461904E-18
   72.3150024         6.61952319E-18
   72.4574966         6.61600519E-18
   72.5999985         6.61503905E-18
   72.7425003         6.61708590E-18
   72.8850021         6.62199812E-18
   73.0274963         6.62903411E-18
   73.1699982         6.63699366E-18
   73.3125000         6.64445648E-18
   73.4550018         6.65008255E-18
   73.5975037         6.65290531E-18
   73.7399979         6.65254590E-18
   73.8824997         6.64929590E-18
   74.0250015         6.64404537E-18
   74.1675034         6.63808264E-18
   74.3099976         6.63281061E-18
   74.4524994         6.62945763E-18
   74.5950012         6.62883973E-18
   74.7375031         6.63121208E-18
   74.8799973         6.63623720E-18
   75.0224991         6.64305689E-18
   75.1650009         6.65045354E-18
   75.3075027         6.65707636E-18
   75.4499969         6.66170320E-18
   75.5924988         6.66348412E-18
   75.7350006         6.66213416E-18
   75.8775024         6.65801521E-18
   76.0199966         6.65208474E-18
   76.1624985         6.64570801E-18
   76.3050003         6.64036938E-18
   76.4475021         6.63735638E-18
   76.5899963         6.63748542E-18
   76.7324982         6.64093807E-18
   76.8750000         6.64724077E-18
   77.0175018         6.65538395E-18
   77.1600037         6.66404040E-18
   77.3024979         6.67183327E-18
   77.4449997         6.67759417E-18
   77.5875015         6.68057781E-18
   77.7300034         6.68059394E-18
   77.8724976         6.67804457E-18
   78.0149994         6.67385490E-18
   78.1575012         6.66930664E-18
   78.3000031         6.66578575E-18
   78.4424973         6.66449783E-18
   78.5849991         6.66620306E-18
   78.7275009         6.67104207E-18
   78.8700027         6.67848918E-18
   79.0124969         6.68746822E-18
   79.1549988         6.69658499E-18
   79.2975006         6.70443287E-18
   79.4400024         6.70988482E-18
   79.5824966         6.71231714E-18
   79.7249985         6.71171247E-18
   79.8675003         6.70863908E-18
   80.0100021         6.70412350E-18
   80.1524963         6.69944290E-18
   80.2949982         6.69588561E-18
   80.4375000         6.69450422E-18
   80.5800018         6.69591332E-18
   80.7225037         6.70015179E-18
   80.8649979         6.70665798E-18
   81.0074997         6.71436483E-18
   81.1500015         6.72190830E-18
   81.2925034         6.72791404E-18
   81.4349976         6.73129763E-18
   81.5774994         6.73150111E-18
   81.7200012         6.72861218E-18
   81.8625031         6.72333064E-18
   82.0049973         6.71680501E-18
   82.1474991         6.71037492E-18
   82.2900009         6.70529520E-18
   82.4325027         6.70248982E-18
   82.5749969         6.70238725E-18
   82.7174988         6.70485514E-18
   82.8600006         6.70923424E-18
   83.0025024         6.71446202E-18
   83.1449966         6.71927745E-18
   83.2874985         6.72246251E-18
   83.4300003         6.72309903E-18
   83.5725021         6.72077506E-18
   83.7149963         6.71569783E-18
   83.8574982         6.70867837E-18
   84.0000000         6.70097319E-18
   84.1425018         6.69402156E-18
   84.2850037         6.68913582E-18
   84.4274979         6.68722627E-18
   84.5699997         6.68861635E-18
   84.7125015         6.69299710E-18
   84.8550034         6.69951238E-18
   84.9974976         6.70694129E-18
   85.1399994         6.71394379E-18
   85.2825012         6.71930640E-18