  -30.0000000         9.84044911E-18
  -29.8575001         9.85751136E-18
  -29.7150002         9.88334669E-18
  -29.5725002         9.90642503E-18
  -29.4300003         9.91863835E-18
  -29.2875004         9.91982867E-18
  -29.1450005         9.91749519E-18
  -29.0025005         9.92190241E-18
  -28.8600006         9.93955858E-18
  -28.7175007         9.96902606E-18
  -28.5750008         1.00015789E-17
  -28.4325008         1.00263141E-17
  -28.2900009         1.00366365E-17
  -28.1474991         1.00342054E-17
  -28.0049992         1.00279643E-17
  -27.8624992         1.00288411E-17
  -27.7199993         1.00432829E-17
  -27.5774994         1.00695062E-17
  -27.4349995         1.00986866E-17
  -27.2924995         1.01203372E-17
  -27.1499996         1.01286314E-17
  -27.0074997         1.01258512E-17
  -26.8649998         1.01209279E-17
  -26.7224998         1.01239677E-17
  -26.5799999         1.01401093E-17
  -26.4375000         1.01664195E-17
  -26.2950001         1.01936916E-17
  -26.1525002         1.02120459E-17
  -26.0100002         1.02169213E-17
  -25.8675003         1.02118416E-17
  -25.7250004         1.02062763E-17
  -25.5825005         1.02099118E-17
  -25.4400005         1.02267937E-17
  -25.2975006         1.02528946E-17
  -25.1550007         1.02785579E-17
  -25.0125008         1.02943454E-17
  -24.8700008         1.02967327E-17
  -24.7275009         1.02902162E-17
  -24.5849991         1.02845624E-17
  -24.4424992         1.02888761E-17
  -24.2999992         1.03060972E-17
  -24.1574993         1.03312484E-17
  -24.0149994         1.03545187E-17
  -23.8724995         1.03672689E-17
  -23.7299995         1.03673383E-17
  -23.5874996         1.03604024E-17
  -23.4449997         1.03565420E-17
  -23.3024998         1.03641032E-17
  -23.1599998         1.03845602E-17
  -23.0174999         1.04115197E-17
  -22.8750000         1.04344831E-17
  -22.7325001         1.04451223E-17
  -22.5900002         1.04422792E-17
  -22.4475002         1.04326699E-17
  -22.3050003         1.04268383E-17
  -22.1625004         1.04328113E-17
  -22.0200005         1.04512815E-17
  -21.8775005         1.04752143E-17
  -21.7350006         1.04941443E-17
  -21.5925007         1.05005591E-17
  -21.4500008         1.04945000E-17
  -21.3075008         1.04835903E-17
  -21.1650009         1.04784419E-17
  -21.0224991         1.04862025E-17
  -20.8799992         1.05061368E-17
  -20.7374992         1.05299314E-17
  -20.5949993         1.05465842E-17
  -20.4524994         1.05489483E-17
  -20.3099995         1.05380304E-17
  -20.1674995         1.05224455E-17
  -20.0249996         1.05133432E-17
  -19.8824997         1.05178505E-17
  -19.7399998         1.05349475E-17
  -19.5974998         1.05562457E-17
  -19.4549999         1.05711829E-17
  -19.3125000         1.05734899E-17
  -19.1700001         1.05650378E-17
  -19.0275002         1.05547212E-17
  -18.8850002         1.05530553E-17
  -18.7425003         1.05657343E-17
  -18.6000004         1.05900220E-17
  -18.4575005         1.06161725E-17
  -18.3150005         1.06330403E-17
  -18.1725006         1.06345483E-17
  -18.0300007         1.06231431E-17
  -17.8875008         1.06082026E-17
  -17.7450008         1.06003791E-17
  -17.6025009         1.06052760E-17
  -17.4599991         1.06202529E-17
  -17.3174992         1.06362548E-17
  -17.1749992         1.06435108E-17
  -17.0324993         1.06376486E-17
  -16.8899994         1.06225260E-17
  -16.7474995         1.06080479E-17
  -16.6049995         1.06043132E-17
  -16.4624996         1.06156034E-17
  -16.3199997         1.06378281E-17
  -16.1774998         1.06609701E-17
  -16.0349998         1.06750338E-17
  -15.8924999         1.06759255E-17
  -15.7500000         1.06677389E-17
  -15.6075001         1.06601015E-17
  -15.4650002         1.06622183E-17
  -15.3225002         1.06772333E-17
  -15.1800003         1.07003000E-17
  -15.0375004         1.07215313E-17
  -14.8950005         1.07319877E-17
  -14.7524996         1.07290975E-17
  -14.6099997         1.07181936E-17
  -14.4674997         1.07092609E-17
  -14.3249998         1.07108681E-17
  -14.1824999         1.07249674E-17
  -14.0400000         1.07457172E-17
  -13.8975000         1.07630409E-17
  -13.7550001         1.07687616E-17
  -13.6125002         1.07615933E-17
  -13.4700003         1.07479680E-17
  -13.3275003         1.07381874E-17
  -13.1850004         1.07402363E-17
  -13.0424995         1.07549949E-17
  -12.8999996         1.07757563E-17
  -12.7574997         1.07923346E-17
  -12.6149998         1.07972679E-17
  -12.4724998         1.07903527E-17
  -12.3299999         1.07787565E-17
  -12.1875000         1.07726254E-17
  -12.0450001         1.07788549E-17
  -11.9025002         1.07968056E-17
  -11.7600002         1.08185894E-17
  -11.6175003         1.08337731E-17
  -11.4750004         1.08356863E-17
  -11.3325005         1.08255087E-17
  -11.1899996         1.08116592E-17
  -11.0474997         1.08048168E-17
  -10.9049997         1.08115699E-17
  -10.7624998         1.08304966E-17
  -10.6199999         1.08530580E-17
  -10.4775000         1.08687620E-17
  -10.3350000         1.08714942E-17
  -10.1925001         1.08631901E-17
  -10.0500002         1.08526303E-17
  -9.90750027         1.08500752E-17
  -9.76500034         1.08609708E-17
  -9.62250042         1.08825403E-17
  -9.47999954         1.09053399E-17
  -9.33749962         1.09188585E-17
  -9.19499969         1.09178345E-17
  -9.05249977         1.09054681E-17
  -8.90999985         1.08915922E-17
  -8.76749992         1.08868855E-17
  -8.62500000         1.08965693E-17
  -8.48250008         1.09173663E-17
  -8.34000015         1.09395273E-17
  -8.19750023         1.09526993E-17
  -8.05500031         1.09521112E-17
  -7.91249990         1.09413570E-17
  -7.76999998         1.09301280E-17
  -7.62750006         1.09282694E-17
  -7.48500013         1.09397556E-17
  -7.34250021         1.09602217E-17
  -7.19999981         1.09795397E-17
  -7.05749989         1.09878975E-17
  -6.91499996         1.09817259E-17
  -6.77250004         1.09659235E-17
  -6.63000011         1.09510243E-17
  -6.48750019         1.09470331E-17
  -6.34499979         1.09575937E-17
  -6.20249987         1.09779945E-17
  -6.05999994         1.09981454E-17
  -5.91750002         1.10087292E-17
  -5.77500010         1.10067862E-17
  -5.63250017         1.09973911E-17
  -5.48999977         1.09904436E-17
  -5.34749985         1.09945323E-17
  -5.20499992         1.10116153E-17
  -5.06250000         1.10357226E-17
  -4.92000008         1.10564782E-17
  -4.77750015         1.10652910E-17
  -4.63500023         1.10604884E-17
  -4.49249983         1.10482916E-17
  -4.34999990         1.10390578E-17
  -4.20749998         1.10410637E-17
  -4.06500006         1.10555874E-17
  -3.92249990         1.10762412E-17
  -3.77999997         1.10929337E-17
  -3.63750005         1.10980366E-17
  -3.49499989         1.10910172E-17
  -3.35249996         1.10787335E-17
  -3.21000004         1.10712277E-17
  -3.06750011         1.10755861E-17
  -2.92499995         1.10916053E-17
  -2.78250003         1.11118935E-17
  -2.64000010         1.11263609E-17
  -2.49749994         1.11283619E-17
  -2.35500002         1.11187707E-17
  -2.21250010         1.11055060E-17
  -2.06999993         1.10987753E-17
  -1.92750001         1.11049229E-17
  -1.78499997         1.11225923E-17
  -1.64250004         1.11435406E-17
  -1.50000000         1.11576184E-17
  -1.35749996         1.11589014E-17
  -1.21500003         1.11492639E-17
  -1.07249999         1.11372235E-17
 -0.930000007         1.11327501E-17
 -0.787500024         1.11411807E-17
 -0.644999981         1.11599354E-17
 -0.502499998         1.11800342E-17
 -0.360000014         1.11915303E-17
 -0.217500001         1.11895650E-17
  -7.50000030E-02     1.11773922E-17
   6.75000027E-02     1.11645055E-17
  0.209999993         1.11609851E-17
  0.352499992         1.11714332E-17
  0.495000005         1.11921838E-17
  0.637499988         1.12134465E-17
  0.779999971         1.12251503E-17
  0.922500014         1.12229508E-17
   1.06500006         1.12108061E-17
   1.20749998         1.11985697E-17
   1.35000002         1.11960294E-17
   1.49249995         1.12070028E-17
   1.63499999         1.12270321E-17
   1.77750003         1.12460763E-17
   1.91999996         1.12546020E-17
   2.06250000         1.12493900E-17
   2.20499992         1.12355637E-17
   2.34750009         1.12236043E-17
   2.49000001         1.12231262E-17
   2.63249993         1.12371328E-17
   2.77500010         1.12602112E-17
   2.91750002         1.12817261E-17
   3.05999994         1.12921163E-17
   3.20250010         1.12885090E-17
   3.34500003         1.12763114E-17
   3.48749995         1.12658360E-17
   3.63000011         1.12660188E-17
   3.77250004         1.12790130E-17
   3.91499996         1.12989108E-17
   4.05749989         1.13153494E-17
   4.19999981         1.13198120E-17
   4.34250021         1.13108230E-17
   4.48500013         1.12949172E-17
   4.62750006         1.12827882E-17
   4.76999998         1.12829504E-17
   4.91249990         1.12967113E-17
   5.05499983         1.13174686E-17
   5.19750023         1.13347277E-17
   5.34000015         1.13404047E-17
   5.48250008         1.13336176E-17
   5.62500000         1.13211024E-17
   5.76749992         1.13130316E-17
   5.90999985         1.13168011E-17
   6.05249977         1.13325390E-17
   6.19500017         1.13530523E-17
   6.33750010         1.13682252E-17
   6.48000002         1.13711733E-17
   6.62249994         1.13624507E-17
   6.76499987         1.13497270E-17
   6.90749979         1.13431716E-17
   7.05000019         1.13493208E-17
   7.19250011         1.13671474E-17
   7.33500004         1.13886996E-17
   7.47749996         1.14039255E-17
   7.61999989         1.14067288E-17
   7.76249981         1.13986216E-17
   7.90500021         1.13877401E-17
   8.04749966         1.13838589E-17
   8.18999958         1.13924178E-17
   8.33250046         1.14111997E-17
   8.47500038         1.14316716E-17
   8.61750031         1.14441720E-17
   8.76000023         1.14437923E-17
   8.90250015         1.14333715E-17
   9.04500008         1.14217761E-17
   9.18750000         1.14184996E-17
   9.32999992         1.14278443E-17
   9.47249985         1.14462267E-17
   9.61499977         1.14642626E-17
   9.75749969         1.14723830E-17
   9.89999962         1.14666109E-17
   10.0424995         1.14510037E-17
   10.1850004         1.14352690E-17
   10.3275003         1.14289866E-17
   10.4700003         1.14359176E-17
   10.6125002         1.14518424E-17
   10.7550001         1.14672197E-17
   10.8975000         1.14730894E-17
   11.0400000         1.14666175E-17
   11.1824999         1.14529401E-17
   11.3249998         1.14421454E-17
   11.4674997         1.14432067E-17
   11.6099997         1.14585054E-17
   11.7524996         1.14822719E-17
   11.8950005         1.15038961E-17
   12.0375004         1.15141573E-17
   12.1800003         1.15106426E-17
   12.3225002         1.14991100E-17
   12.4650002         1.14899639E-17
   12.6075001         1.14919748E-17
   12.7500000         1.15070021E-17
   12.8924999         1.15288960E-17
   13.0349998         1.15472221E-17
   13.1774998         1.15535741E-17
   13.3199997         1.15466621E-17
   13.4624996         1.15331187E-17
   13.6049995         1.15235234E-17
   13.7475004         1.15260364E-17
   13.8900003         1.15414675E-17
   14.0325003         1.15627450E-17
   14.1750002         1.15791009E-17
   14.3175001         1.15824758E-17
   14.4600000         1.15723014E-17
   14.6025000         1.15558075E-17
   14.7449999         1.15436860E-17
   14.8874998         1.15437323E-17
   15.0299997         1.15562789E-17
   15.1724997         1.15741370E-17
   15.3149996         1.15870633E-17
   15.4575005         1.15880237E-17
   15.6000004         1.15774796E-17
   15.7425003         1.15631115E-17
   15.8850002         1.15551788E-17
   16.0275002         1.15603098E-17
   16.1700001         1.15774895E-17
   16.3125000         1.15986438E-17
   16.4549999         1.16134578E-17
   16.5974998         1.16155191E-17
   16.7399998         1.16060918E-17
   16.8824997         1.15932523E-17
   17.0249996         1.15869508E-17
   17.1674995         1.15929834E-17
   17.3099995         1.16095270E-17
   17.4524994         1.16283040E-17
   17.5949993         1.16396546E-17
   17.7374992         1.16384180E-17
   17.8799992         1.16270591E-17
   18.0224991         1.16141675E-17
   18.1650009         1.16092284E-17
   18.3075008         1.16168716E-17
   18.4500008         1.16340711E-17
   18.5925007         1.16520036E-17
   18.7350006         1.16614227E-17
   18.8775005         1.16582968E-17
   19.0200005         1.16462828E-17
   19.1625004         1.16345327E-17
   19.3050003         1.16321595E-17
   19.4475002         1.16427218E-17
   19.5900002         1.16620530E-17
   19.7325001         1.16807762E-17
   19.8750000         1.16899637E-17
   20.0174999         1.16865218E-17
   20.1599998         1.16750348E-17
   20.3024998         1.16649448E-17
   20.4449997         1.16647753E-17
   20.5874996         1.16769009E-17
   20.7299995         1.16960435E-17
   20.8724995         1.17124374E-17
   21.0149994         1.17177446E-17
   21.1574993         1.17101651E-17
   21.2999992         1.16956299E-17
   21.4424992         1.16843232E-17
   21.5849991         1.16846235E-17
   21.7275009         1.16980900E-17
   21.8700008         1.17185329E-17
   22.0125008         1.17357325E-17
   22.1550007         1.17415715E-17
   22.2975006         1.17349028E-17
   22.4400005         1.17221899E-17
   22.5825005         1.17135558E-17
   22.7250004         1.17165957E-17
   22.8675003         1.17316942E-17
   23.0100002         1.17516913E-17
   23.1525002         1.17661049E-17
   23.2950001         1.17674011E-17
   23.4375000         1.17555501E-17
   23.5799999         1.17381057E-17
   23.7224998         1.17257724E-17
   23.8649998         1.17260900E-17
   24.0074997         1.17390205E-17
   24.1499996         1.17570762E-17
   24.2924995         1.17699033E-17
   24.4349995         1.17705444E-17
   24.5774994         1.17596405E-17
   24.7199993         1.17450333E-17
   24.8624992         1.17370287E-17
   25.0049992         1.17421696E-17
   25.1474991         1.17592716E-17
   25.2900009         1.17800983E-17
   25.4325008         1.17942754E-17
   25.5750008         1.17954789E-17
   25.7175007         1.17851937E-17
   25.8600006         1.17717975E-17
   26.0025005         1.17655201E-17
   26.1450005         1.17723327E-17
   26.2875004         1.17904207E-17
   26.4300003         1.18113326E-17
   26.5725002         1.18250978E-17
   26.7150002         1.18262045E-17
   26.8575001         1.18168417E-17
   27.0000000         1.18054770E-17
   27.1424999         1.18016530E-17
   27.2849998         1.18101655E-17
   27.4274998         1.18281443E-17
   27.5699997         1.18467773E-17
   27.7124996         1.18566332E-17
   27.8549995         1.18533518E-17
   27.9974995         1.18402683E-17
   28.1399994         1.18263973E-17
   28.2824993         1.18210173E-17
   28.4249992         1.18281219E-17
   28.5674992         1.18440981E-17
   28.7099991         1.18600081E-17
   28.8525009         1.18670739E-17
   28.9950008         1.18620322E-17
   29.1375008         1.18491149E-17
   29.2800007         1.18374691E-17
   29.4225006         1.18355872E-17
   29.5650005         1.18461462E-17
   29.7075005         1.18643715E-17
   29.8500004         1.18809300E-17
   29.9925003         1.18875979E-17
   30.1350002         1.18822419E-17
   30.2775002         1.18701195E-17
   30.4200001         1.18606682E-17
   30.5625000         1.18617592E-17
   30.7049999         1.18748676E-17
   30.8474998         1.18941194E-17
   30.9899998         1.19097829E-17
   31.1324997         1.19141173E-17
   31.2749996         1.19060382E-17
   31.4174995         1.18917685E-17
   31.5599995         1.18810805E-17
   31.7024994         1.18813891E-17
   31.8449993         1.18932732E-17
   31.9874992         1.19101410E-17
   32.1300011         1.19222468E-17
   32.2724991         1.19226439E-17
   32.4150009         1.19114596E-17
   32.5574989         1.18959036E-17
   32.7000008         1.18859650E-17
   32.8424988         1.18883812E-17
   32.9850006         1.19025177E-17
   33.1274986         1.19206520E-17
   33.2700005         1.19325171E-17
   33.4124985         1.19313996E-17
   33.5550003         1.19181283E-17
   33.6974983         1.19005672E-17
   33.8400002         1.18889023E-17
   33.9824982         1.18895674E-17
   34.1250000         1.19014474E-17
   34.2675018         1.19166518E-17
   34.4099998         1.19253752E-17
   34.5525017         1.19219391E-17
   34.6949997         1.19083419E-17
   34.8375015         1.18932004E-17
   34.9799995         1.18866714E-17
   35.1225014         1.18944196E-17
   35.2649994         1.19142331E-17
   35.4075012         1.19373197E-17
   35.5499992         1.19535109E-17
   35.6925011         1.19572589E-17
   35.8349991         1.19508400E-17
   35.9775009         1.19428577E-17
   36.1199989         1.19429685E-17
   36.2625008         1.19560140E-17
   36.4049988         1.19790700E-17
   36.5475006         1.20031732E-17
   36.6899986         1.20186820E-17
   36.8325005         1.20210105E-17
   36.9749985         1.20133136E-17
   37.1175003         1.20045008E-17
   37.2599983         1.20038019E-17
   37.4025002         1.20151632E-17
   37.5449982         1.20348385E-17
   37.6875000         1.20536296E-17
   37.8300018         1.20623844E-17
   37.9724998         1.20574710E-17
   38.1150017         1.20429076E-17
   38.2574997         1.20279117E-17
   38.4000015         1.20213563E-17
   38.5424995         1.20264914E-17
   38.6850014         1.20391010E-17
   38.8274994         1.20501885E-17
   38.9700012         1.20515302E-17
   39.1124992         1.20407363E-17
   39.2550011         1.20227451E-17
   39.3974991         1.20068657E-17
   39.5400009         1.20011764E-17
   39.6824989         1.20076689E-17
   39.8250008         1.20210908E-17
   39.9674988         1.20321642E-17
   40.1100006         1.20332420E-17
   40.2524986         1.20229552E-17
   40.3950005         1.20070461E-17
   40.5374985         1.19948815E-17
   40.6800003         1.19937673E-17
   40.8224983         1.20045017E-17
   40.9650002         1.20208740E-17
   41.1074982         1.20334017E-17
   41.2500000         1.20350594E-17
   41.3925018         1.20255112E-17
   41.5349998         1.20112953E-17
   41.6775017         1.20018456E-17
   41.8199997         1.20037531E-17
   41.9625015         1.20167671E-17
   42.1049995         1.20339418E-17
   42.2475014         1.20458797E-17
   42.3899994         1.20464877E-17
   42.5325012         1.20367592E-17
   42.6749992         1.20242779E-17
   42.8175011         1.20187060E-17
   42.9599991         1.20259678E-17
   43.1025009         1.20446381E-17
   43.2449989         1.20667131E-17
   43.3875008         1.20823402E-17
   43.5299988         1.20856506E-17
   43.6725006         1.20781960E-17
   43.8149986         1.20679282E-17
   43.9575005         1.20643101E-17
   44.0999985         1.20725331E-17
   44.2425003         1.20903034E-17
   44.3849983         1.21091772E-17
   44.5275002         1.21196320E-17
   44.6699982         1.21168411E-17
   44.8125000         1.21036657E-17
   44.9550018         1.20890461E-17
   45.0974998         1.20827389E-17
   45.2400017         1.20895424E-17
   45.3824997         1.21064666E-17
   45.5250015         1.21245512E-17
   45.6674995         1.21342342E-17
   45.8100014         1.21310595E-17
   45.9524994         1.21183019E-17
   46.0950012         1.21049412E-17
   46.2374992         1.21002189E-17
   46.3800011         1.21080432E-17
   46.5224991         1.21246199E-17
   46.6650009         1.21407184E-17
   46.8074989         1.21472102E-17
   46.9500008         1.21405571E-17
   47.0924988         1.21249524E-17
   47.2350006         1.21098340E-17
   47.3774986         1.21042745E-17
   47.5200005         1.21116075E-17
   47.6624985         1.21275200E-17
   47.8050003         1.21427136E-17
   47.9474983         1.21485469E-17
   48.0900002         1.21422231E-17
   48.2324982         1.21284398E-17
   48.3750000         1.21165176E-17
   48.5175018         1.21147582E-17
   48.6599998         1.21254446E-17
   48.8025017         1.21434953E-17
   48.9449997         1.21595517E-17
   49.0875015         1.21656340E-17
   49.2299995         1.21599297E-17
   49.3725014         1.21478463E-17
   49.5149994         1.21386927E-17
   49.6575012         1.21400211E-17
   49.7999992         1.21530467E-17
   49.9425011         1.21719048E-17
   50.0849991         1.21871861E-17
   50.2275009         1.21915983E-17
   50.3699989         1.21843266E-17
   50.5125008         1.21714697E-17
   50.6549988         1.21623054E-17
   50.7975006         1.21636495E-17
   50.9399986         1.21757404E-17
   51.0825005         1.21921343E-17
   51.2249985         1.22036603E-17
   51.3675003         1.22040284E-17
   51.5099983         1.21936812E-17
   51.6525002         1.21795496E-17
   51.7949982         1.21708444E-17
   51.9375000         1.21734508E-17
   52.0800018         1.21863143E-17
   52.2224998         1.22020183E-17
   52.3650017         1.22112339E-17
   52.5074997         1.22083479E-17
   52.6500015         1.21948682E-17
   52.7924995         1.21785446E-17
   52.9350014         1.21687317E-17
   53.0774994         1.21707798E-17
   53.2200012         1.21828674E-17
   53.3624992         1.21971677E-17
   53.5050011         1.22046744E-17
   53.6474991         1.22007453E-17
   53.7900009         1.21880108E-17
   53.9324989         1.21748578E-17
   54.0750008         1.21703886E-17
   54.2174988         1.21788722E-17
   54.3600006         1.21970627E-17
   54.5024986         1.22160150E-17
   54.6450005         1.22263333E-17
   54.7874985         1.22237260E-17
   54.9300003         1.22115251E-17
   55.0724983         1.21986534E-17
   55.2150002         1.21942594E-17
   55.3574982         1.22022367E-17
   55.5000000         1.22189251E-17
   55.6425018         1.22353793E-17
   55.7849998         1.22428298E-17
   55.9275017         1.22380594E-17
   56.0699997         1.22254284E-17
   56.2125015         1.22143268E-17
   56.3549995         1.22135649E-17
   56.4975014         1.22260587E-17
   56.6399994         1.22470112E-17
   56.7825012         1.22666898E-17
   56.9249992         1.22761436E-17
   57.0675011         1.22724536E-17
   57.2099991         1.22603743E-17
   57.3525009         1.22494009E-17
   57.4949989         1.22480327E-17
   57.6375008         1.22586785E-17
   57.7799988         1.22762528E-17
   57.9225006         1.22912835E-17
   58.0649986         1.22956527E-17
   58.2075005         1.22874934E-17
   58.3499985         1.22723179E-17
   58.4925003         1.22596869E-17
   58.6349983         1.22574626E-17
   58.7775002         1.22670794E-17
   58.9199982         1.22827073E-17
   59.0625000         1.22947800E-17
   59.2050018         1.22957768E-17
   59.3474998         1.22847612E-17
   59.4900017         1.22679794E-17
   59.6324997         1.22551440E-17
   59.7750015         1.22536708E-17
   59.9174995         1.22643282E-17
   60.0600014         1.22808925E-17
   60.2024994         1.22939917E-17
   60.3450012         1.22967818E-17
   60.4874992         1.22890270E-17
   60.6300011         1.22771197E-17
   60.7724991         1.22700672E-17
   60.9150009         1.22738912E-17
   61.0574989         1.22878582E-17
   61.2000008         1.23048344E-17
   61.3424988         1.23155580E-17
   61.4850006         1.23142419E-17
   61.6274986         1.23021179E-17
   61.7700005         1.22867754E-17
   61.9124985         1.22776797E-17
   62.0550003         1.22805773E-17
   62.1974983         1.22941563E-17
   62.3400002         1.23109588E-17
   62.4824982         1.23219785E-17
   62.6250000         1.23221415E-17
   62.7675018         1.23133370E-17
   62.9099998         1.23031693E-17
   63.0525017         1.23001947E-17
   63.1949997         1.23085418E-17
   63.3375015         1.23252178E-17
   63.4799995         1.23417531E-17
   63.6225014         1.23492317E-17
   63.7649994         1.23436672E-17
   63.9075012         1.23284810E-17
   64.0500031         1.23125478E-17
   64.1924973         1.23049725E-17
   64.3349991         1.23097164E-17
   64.4775009         1.23233186E-17
   64.6200027         1.23370704E-17
   64.7624969         1.23423412E-17
   64.9049988         1.23358396E-17
   65.0475006         1.23216195E-17
   65.1900024         1.23086237E-17
   65.3324966         1.23052347E-17
   65.4749985         1.23141311E-17
   65.6175003         1.23305787E-17
   65.7600021         1.23452041E-17
   65.9024963         1.23496262E-17
   66.0449982         1.23415414E-17
   66.1875000         1.23262112E-17
   66.3300018         1.23134189E-17
   66.4725037         1.23117041E-17
   66.6149979         1.23233177E-17
   66.7574997         1.23429145E-17
   66.9000015         1.23607675E-17
   67.0425034         1.23685827E-17
   67.1849976         1.23644112E-17
   67.3274994         1.23537332E-17
   67.4700012         1.23460619E-17
   67.6125031         1.23491183E-17
   67.7549973         1.23640994E-17
   67.8974991         1.23848782E-17
   68.0400009         1.24016302E-17
   68.1825027         1.24067033E-17
   68.3249969         1.23992016E-17
   68.4674988         1.23855259E-17
   68.6100006         1.23755434E-17
   68.7525024         1.23766841E-17
   68.8949966         1.23894914E-17
   69.0374985         1.24073014E-17
   69.1800003         1.24202269E-17
   69.3225021         1.24210442E-17
   69.4649963         1.24094570E-17
   69.6074982         1.23922020E-17
   69.7500000         1.23789506E-17
   69.8925018         1.23765203E-17
   70.0350037         1.23848716E-17
   70.1774979         1.23972933E-17
   70.3199997         1.24046461E-17
   70.4625015         1.24010570E-17
   70.6050034         1.23876286E-17
   70.7474976         1.23718939E-17
   70.8899994         1.23633491E-17
   71.0325012         1.23677646E-17
   71.1750031         1.23836887E-17
   71.3174973         1.24032548E-17
   71.4599991         1.24168040E-17
   71.6025009         1.24185271E-17
   71.7450027         1.24097407E-17
   71.8874969         1.23978599E-17
   72.0299988         1.23917231E-17
   72.1725006         1.23961303E-17
   72.3150024         1.24089202E-17
   72.4574966         1.24223478E-17
   72.5999985         1.24279205E-17
   72.7425003         1.24217183E-17
   72.8850021         1.24069622E-17
   73.0274963         1.23922310E-17
   73.1699982         1.23863828E-17
   73.3125000         1.23932492E-17
   73.4550018         1.24092965E-17
   73.5975037         1.24256896E-17
   73.7399979         1.24335205E-17
   73.8824997         1.24290504E-17
   74.0250015         1.24158156E-17
   74.1675034         1.24023408E-17
   74.3099976         1.23968524E-17
   74.4524994         1.24022200E-17
   74.5950012         1.24142059E-17
   74.7375031         1.24240799E-17
   74.8799973         1.24240435E-17
   75.0224991         1.24121379E-17
   75.1650009         1.23936579E-17
   75.3075027         1.23781557E-17
   75.4499969         1.23738179E-17
   75.5924988         1.23825811E-17
   75.7350006         1.23989510E-17
   75.8775024         1.24132439E-17
   76.0199966         1.24173442E-17
   76.1624985         1.24095025E-17
   76.3050003         1.23953246E-17
   76.4475021         1.23843314E-17
   76.5899963         1.23841850E-17
   76.7324982         1.23960476E-17
   76.8750000         1.24138866E-17
   77.0175018         1.24281397E-17
   77.1600037         1.24315386E-17
   77.3024979         1.24235654E-17
   77.4449997         1.24108376E-17
   77.5875015         1.24031663E-17
   77.7300034         1.24076381E-17
   77.8724976         1.24242685E-17
   78.0149994         1.24458571E-17
   78.1575012         1.24621459E-17
   78.3000031         1.24658054E-17
   78.4424973         1.24566808E-17
   78.5849991         1.24417700E-17
   78.7275009         1.24309670E-17
   78.8700027         1.24311283E-17
   79.0124969         1.24420355E-17
   79.1549988         1.24566601E-17
   79.2975006         1.24655366E-17
   79.4400024         1.24626025E-17
   79.5824966         1.24489582E-17
   79.7249985         1.24322880E-17
   79.8675003         1.24222734E-17
   80.0100021         1.24247764E-17
   80.1524963         1.24382892E-17
   80.2949982         1.24547840E-17
   80.4375000         1.24644637E-17
   80.5800018         1.24615578E-17
   80.7225037         1.24477001E-17
   80.8649979         1.24308744E-17
   81.0074997         1.24206008E-17
   81.1500015         1.24222684E-17
   81.2925034         1.24340127E-17
   81.4349976         1.24480061E-17
   81.5774994         1.24553209E-17
   81.7200012         1.24514091E-17
   81.8625031         1.24388550E-17
   82.0049973         1.24257608E-17
   82.1474991         1.24207348E-17
   82.2900009         1.24275590E-17
   82.4325027         1.24427568E-17
   82.5749969         1.24575774E-17
   82.7174988         1.24631783E-17
   82.8600006         1.24559148E-17
   83.0025024         1.24395250E-17
   83.1449966         1.24229177E-17
   83.2874985         1.24148891E-17
   83.4300003         1.24189713E-17
   83.5725021         1.24315047E-17
   83.7149963         1.24440654E-17
   83.8574982         1.24487572E-17
   84.0000000         1.24431117E-17
   84.1425018         1.24316180E-17
   84.2850037         1.24229500E-17
   84.4274979         1.24245630E-17
   84.5699997         1.24379708E-17
   84.7125015         1.24575981E-17
   84.8550034         1.24739357E-17
   84.9974976         1.24791404E-17
   85.1399994         1.24716991E-17
   85.2825012         1.24573409E-17