  -30.0000000         4.89664411E-18
  -29.8575001         4.90199184E-18
  -29.7150002         4.91176994E-18
  -29.5725002         4.92439065E-18
  -29.4300003         4.93790388E-18
  -29.2875004         4.95037901E-18
  -29.1450005         4.96027292E-18
  -29.0025005         4.96671913E-18
  -28.8600006         4.96968127E-18
  -28.7175007         4.96993521E-18
  -28.5750008         4.96889007E-18
  -28.4325008         4.96827920E-18
  -28.2900009         4.96979376E-18
  -28.1474991         4.97472252E-18
  -28.0049992         4.98367096E-18
  -27.8624992         4.99642774E-18
  -27.7199993         5.01199156E-18
  -27.5774994         5.02876554E-18
  -27.4349995         5.04486744E-18
  -27.2924995         5.05850682E-18
  -27.1499996         5.06834365E-18
  -27.0074997         5.07375631E-18
  -26.8649998         5.07496812E-18
  -26.7224998         5.07300398E-18
  -26.5799999         5.06948971E-18
  -26.4375000         5.06632409E-18
  -26.2950001         5.06530872E-18
  -26.1525002         5.06778902E-18
  -26.0100002         5.07439530E-18
  -25.8675003         5.08492076E-18
  -25.7250004         5.09837403E-18
  -25.5825005         5.11318015E-18
  -25.4400005         5.12750443E-18
  -25.2975006         5.13962180E-18
  -25.1550007         5.14826708E-18
  -25.0125008         5.15288647E-18
  -24.8700008         5.15374963E-18
  -24.7275009         5.15188930E-18
  -24.5849991         5.14888953E-18
  -24.4424992         5.14655895E-18
  -24.2999992         5.14656226E-18
  -24.1574993         5.15008026E-18
  -24.0149994         5.15756873E-18
  -23.8724995         5.16866660E-18
  -23.7299995         5.18226875E-18
  -23.5874996         5.19675517E-18
  -23.4449997         5.21031266E-18
  -23.3024998         5.22130754E-18
  -23.1599998         5.22861362E-18
  -23.0174999         5.23184003E-18
  -22.8750000         5.23141279E-18
  -22.7325001         5.22849119E-18
  -22.5900002         5.22473207E-18
  -22.4475002         5.22195688E-18
  -22.3050003         5.22178483E-18
  -22.1625004         5.22529869E-18
  -22.0200005         5.23283224E-18
  -21.8775005         5.24389619E-18
  -21.7350006         5.25727956E-18
  -21.5925007         5.27129820E-18
  -21.4500008         5.28413605E-18
  -21.3075008         5.29421400E-18
  -21.1650009         5.30050760E-18
  -21.0224991         5.30275505E-18
  -20.8799992         5.30150436E-18
  -20.7374992         5.29800125E-18
  -20.5949993         5.29393441E-18
  -20.4524994         5.29109057E-18
  -20.3099995         5.29099213E-18
  -20.1674995         5.29458665E-18
  -20.0249996         5.30205278E-18
  -19.8824997         5.31276477E-18
  -19.7399998         5.32541939E-18
  -19.5974998         5.33830397E-18
  -19.4549999         5.34965289E-18
  -19.3125000         5.35801403E-18
  -19.1700001         5.36255318E-18
  -19.0275002         5.36323602E-18
  -18.8850002         5.36083968E-18
  -18.7425003         5.35680138E-18
  -18.6000004         5.35292935E-18
  -18.4575005         5.35103428E-18
  -18.3150005         5.35255836E-18
  -18.1725006         5.35827831E-18
  -18.0300007         5.36813500E-18
  -17.8875008         5.38123423E-18
  -17.7450008         5.39601264E-18
  -17.6025009         5.41053586E-18
  -17.4599991         5.42287574E-18
  -17.3174992         5.43149331E-18
  -17.1749992         5.43554112E-18
  -17.0324993         5.43503281E-18
  -16.8899994         5.43084811E-18
  -16.7474995         5.42455368E-18
  -16.6049995         5.41809712E-18
  -16.4624996         5.41342065E-18
  -16.3199997         5.41207648E-18
  -16.1774998         5.41492447E-18
  -16.0349998         5.42197205E-18
  -15.8924999         5.43237963E-18
  -15.7500000         5.44464300E-18
  -15.6075001         5.45689892E-18
  -15.4650002         5.46730196E-18
  -15.3225002         5.47439917E-18
  -15.1800003         5.47741589E-18
  -15.0375004         5.47641046E-18
  -14.8950005         5.47225842E-18
  -14.7524996         5.46647064E-18
  -14.6099997         5.46088469E-18
  -14.4674997         5.45728439E-18
  -14.3249998         5.45703334E-18
  -14.1824999         5.46079122E-18
  -14.0400000         5.46837316E-18
  -13.8975000         5.47878281E-18
  -13.7550001         5.49041214E-18
  -13.6125002         5.50136153E-18
  -13.4700003         5.50982524E-18
  -13.3275003         5.51445291E-18
  -13.1850004         5.51462124E-18
  -13.0424995         5.51056433E-18
  -12.8999996         5.50332733E-18
  -12.7574997         5.49457038E-18
  -12.6149998         5.48624233E-18
  -12.4724998         5.48020680E-18
  -12.3299999         5.47788077E-18
  -12.1875000         5.47996361E-18
  -12.0450001         5.48631181E-18
  -11.9025002         5.49597948E-18
  -11.7600002         5.50742187E-18
  -11.6175003         5.51882083E-18
  -11.4750004         5.52846245E-18
  -11.3325005         5.53508527E-18
  -11.1899996         5.53813964E-18
  -11.0474997         5.53788859E-18
  -10.9049997         5.53534625E-18
  -10.7624998         5.53205572E-18
  -10.6199999         5.52976485E-18
  -10.4775000         5.53005188E-18
  -10.3350000         5.53399050E-18
  -10.1925001         5.54190951E-18
  -10.0500002         5.55330517E-18
  -9.90750027         5.56691187E-18
  -9.76500034         5.58093589E-18
  -9.62250042         5.59338744E-18
  -9.47999954         5.60246906E-18
  -9.33749962         5.60692343E-18
  -9.19499969         5.60628236E-18
  -9.05249977         5.60096235E-18
  -8.90999985         5.59218224E-18
  -8.76749992         5.58172875E-18
  -8.62500000         5.57160695E-18
  -8.48250008         5.56365650E-18
  -8.34000015         5.55920669E-18
  -8.19750023         5.55883652E-18
  -8.05500031         5.56229124E-18
  -7.91249990         5.56856334E-18
  -7.76999998         5.57611839E-18
  -7.62750006         5.58322553E-18
  -7.48500013         5.58831641E-18
  -7.34250021         5.59031323E-18
  -7.19999981         5.58885119E-18
  -7.05749989         5.58435505E-18
  -6.91499996         5.57795432E-18
  -6.77250004         5.57125333E-18
  -6.63000011         5.56599660E-18
  -6.48750019         5.56370779E-18
  -6.34499979         5.56537166E-18
  -6.20249987         5.57122397E-18
  -6.05999994         5.58070180E-18
  -5.91750002         5.59255034E-18
  -5.77500010         5.60507923E-18
  -5.63250017         5.61649722E-18
  -5.48999977         5.62526905E-18
  -5.34749985         5.63041453E-18
  -5.20499992         5.63169583E-18
  -5.06250000         5.62965559E-18
  -4.92000008         5.62549611E-18
  -4.77750015         5.62082999E-18
  -4.63500023         5.61734508E-18
  -4.49249983         5.61645710E-18
  -4.34999990         5.61901102E-18
  -4.20749998         5.62510486E-18
  -4.06500006         5.63406322E-18
  -3.92249990         5.64457710E-18
  -3.77999997         5.65497394E-18
  -3.63750005         5.66356917E-18
  -3.49499989         5.66902401E-18
  -3.35249996         5.67062750E-18
  -3.21000004         5.66845408E-18
  -3.06750011         5.66335782E-18
  -2.92499995         5.65680738E-18
  -2.78250003         5.65059898E-18
  -2.64000010         5.64649823E-18
  -2.49749994         5.64588694E-18
  -2.35500002         5.64948518E-18
  -2.21250010         5.65719616E-18
  -2.06999993         5.66811659E-18
  -1.92750001         5.68070132E-18
  -1.78499997         5.69306229E-18
  -1.64250004         5.70333919E-18
  -1.50000000         5.71006830E-18
  -1.35749996         5.71247457E-18
  -1.21500003         5.71062458E-18
  -1.07249999         5.70541127E-18
 -0.930000007         5.69836866E-18
 -0.787500024         5.69136078E-18
 -0.644999981         5.68620538E-18
 -0.502499998         5.68431196E-18
 -0.360000014         5.68640639E-18
 -0.217500001         5.69239186E-18
  -7.50000030E-02     5.70137463E-18
   6.75000027E-02     5.71184633E-18
  0.209999993         5.72198673E-18
  0.352499992         5.73002858E-18
  0.495000005         5.73461116E-18
  0.637499988         5.73505619E-18
  0.779999971         5.73151130E-18
  0.922500014         5.72492198E-18
   1.06500006         5.71684705E-18
   1.20749998         5.70914186E-18
   1.35000002         5.70358610E-18
   1.49249995         5.70152187E-18
   1.63499999         5.70358817E-18
   1.77750003         5.70959846E-18
   1.91999996         5.71859116E-18
   2.06250000         5.72902976E-18
   2.20499992         5.73912012E-18
   2.34750009         5.74717107E-18
   2.49000001         5.75193398E-18
   2.63249993         5.75284346E-18
   2.77500010         5.75013197E-18
   2.91750002         5.74477845E-18
   3.05999994         5.73831362E-18
   3.20250010         5.73251302E-18
   3.34500003         5.72903597E-18
   3.48749995         5.72908766E-18
   3.63000011         5.73317104E-18
   3.77250004         5.74098418E-18
   3.91499996         5.75148192E-18
   4.05749989         5.76309389E-18
   4.19999981         5.77405113E-18
   4.34250021         5.78275225E-18
   4.48500013         5.78808632E-18
   4.62750006         5.78965590E-18
   4.76999998         5.78785182E-18
   4.91249990         5.78376348E-18
   5.05499983         5.77895425E-18
   5.19750023         5.77513846E-18
   5.34000015         5.77383359E-18
   5.48250008         5.77604588E-18
   5.62500000         5.78205328E-18
   5.76749992         5.79133631E-18
   5.90999985         5.80266621E-18
   6.05249977         5.81434062E-18
   6.19500017         5.82452032E-18
   6.33750010         5.83160347E-18
   6.48000002         5.83455402E-18
   6.62249994         5.83311803E-18
   6.76499987         5.82788363E-18
   6.90749979         5.82016852E-18
   7.05000019         5.81176395E-18
   7.19250011         5.80458361E-18
   7.33500004         5.80029758E-18
   7.47749996         5.80001385E-18
   7.61999989         5.80407572E-18
   7.76249981         5.81200590E-18
   7.90500021         5.82261201E-18
   8.04749966         5.83422439E-18
   8.18999958         5.84502613E-18
   8.33250046         5.85341581E-18
   8.47500038         5.85832099E-18
   8.61750031         5.85940873E-18
   8.76000023         5.85714060E-18
   8.90250015         5.85266886E-18
   9.04500008         5.84757963E-18
   9.18750000         5.84355912E-18
   9.32999992         5.84202677E-18
   9.47249985         5.84384202E-18
   9.61499977         5.84912439E-18
   9.75749969         5.85723159E-18
   9.89999962         5.86689347E-18
   10.0424995         5.87647429E-18
   10.1850004         5.88430397E-18
   10.3275003         5.88901642E-18
   10.4700003         5.88982788E-18
   10.6125002         5.88670197E-18
   10.7550001         5.88036990E-18
   10.8975000         5.87219322E-18
   11.0400000         5.86390570E-18
   11.1824999         5.85726592E-18
   11.3249998         5.85370780E-18
   11.4674997         5.85404818E-18
   11.6099997         5.85832678E-18
   11.7524996         5.86580283E-18
   11.8950005         5.87512020E-18
   12.0375004         5.88459472E-18
   12.1800003         5.89256916E-18
   12.3225002         5.89775599E-18
   12.4650002         5.89949886E-18
   12.6075001         5.89790489E-18
   12.7500000         5.89381572E-18
   12.8924999         5.88864212E-18
   13.0349998         5.88407360E-18
   13.1774998         5.88173847E-18
   13.3199997         5.88286840E-18
   13.4624996         5.88803125E-18
   13.6049995         5.89699788E-18
   13.7475004         5.90876494E-18
   13.8900003         5.92173679E-18
   14.0325003         5.93403779E-18
   14.1750002         5.94388496E-18
   14.3175001         5.94995026E-18
   14.4600000         5.95163151E-18
   14.6025000         5.94917189E-18
   14.7449999         5.94361323E-18
   14.8874998         5.93658303E-18
   15.0299997         5.92997261E-18
   15.1724997         5.92556705E-18
   15.3149996         5.92469934E-18
   15.4575005         5.92799606E-18
   15.6000004         5.93526160E-18
   15.7425003         5.94551699E-18
   15.8850002         5.95719264E-18
   16.0275002         5.96843568E-18
   16.1700001         5.97747759E-18
   16.3125000         5.98298869E-18
   16.4549999         5.98434940E-18
   16.5974998         5.98177314E-18
   16.7399998         5.97626660E-18
   16.8824997         5.96941589E-18
   17.0249996         5.96306315E-18
   17.1674995         5.95892352E-18
   17.3099995         5.95823985E-18
   17.4524994         5.96153782E-18
   17.5949993         5.96852626E-18
   17.7374992         5.97816746E-18
   17.8799992         5.98889186E-18
   18.0224991         5.99890695E-18
   18.1650009         6.00655713E-18
   18.3075008         6.01064795E-18
   18.4500008         6.01068352E-18
   18.5925007         6.00697072E-18
   18.7350006         6.00056131E-18
   18.8775005         5.99304637E-18
   19.0200005         5.98623702E-18
   19.1625004         5.98179424E-18
   19.3050003         5.98089344E-18
   19.4475002         5.98398337E-18
   19.5900002         5.99070380E-18
   19.7325001         5.99996905E-18
   19.8750000         6.01020169E-18
   20.0174999         6.01966050E-18
   20.1599998         6.02679741E-18
   20.3024998         6.03056439E-18
   20.4449997         6.03061444E-18
   20.5874996         6.02736610E-18
   20.7299995         6.02191291E-18
   20.8724995         6.01580129E-18
   21.0149994         6.01072240E-18
   21.1574993         6.00816765E-18
   21.2999992         6.00912263E-18
   21.4424992         6.01385824E-18
   21.5849991         6.02186328E-18
   21.7275009         6.03194496E-18
   21.8700008         6.04246918E-18
   22.0125008         6.05170258E-18
   22.1550007         6.05816989E-18
   22.2975006         6.06095997E-18
   22.4400005         6.05990862E-18
   22.5825005         6.05562838E-18
   22.7250004         6.04937282E-18
   22.8675003         6.04278309E-18
   23.0100002         6.03755779E-18
   23.1525002         6.03511595E-18
   23.2950001         6.03631743E-18
   23.4375000         6.04129127E-18
   23.5799999         6.04940674E-18
   23.7224998         6.05938833E-18
   23.8649998         6.06956430E-18
   24.0074997         6.07819717E-18
   24.1499996         6.08383896E-18
   24.2924995         6.08563063E-18
   24.4349995         6.08348203E-18
   24.5774994         6.07809667E-18
   24.7199993         6.07082658E-18
   24.8624992         6.06339519E-18
   25.0049992         6.05754165E-18
   25.1474991         6.05467877E-18
   25.2900009         6.05561349E-18
   25.4325008         6.06040162E-18
   25.5750008         6.06835331E-18
   25.7175007         6.07817649E-18
   25.8600006         6.08824246E-18
   26.0025005         6.09690717E-18
   26.1450005         6.10283640E-18
   26.2875004         6.10527369E-18
   26.4300003         6.10419422E-18
   26.5725002         6.10031640E-18
   26.7150002         6.09495668E-18
   26.8575001         6.08976075E-18
   27.0000000         6.08635772E-18
   27.1424999         6.08601527E-18
   27.2849998         6.08937073E-18
   27.4274998         6.09629671E-18
   27.5699997         6.10593089E-18
   27.7124996         6.11685546E-18
   27.8549995         6.12739167E-18
   27.9974995         6.13593728E-18
   28.1399994         6.14128624E-18
   28.2824993         6.14286036E-18
   28.4249992         6.14082219E-18
   28.5674992         6.13603985E-18
   28.7099991         6.12991499E-18
   28.8525009         6.12411107E-18
   28.9950008         6.12021878E-18
   29.1375008         6.11943213E-18
   29.2800007         6.12229914E-18
   29.4225006         6.12860018E-18
   29.5650005         6.13738774E-18
   29.7075005         6.14717990E-18
   29.8500004         6.15627186E-18
   29.9925003         6.16308989E-18
   30.1350002         6.16652021E-18
   30.2775002         6.16613557E-18
   30.4200001         6.16227264E-18
   30.5625000         6.15596125E-18
   30.7049999         6.14870812E-18
   30.8474998         6.14219614E-18
   30.9899998         6.13795146E-18
   31.1324997         6.13704239E-18
   31.2749996         6.13986804E-18
   31.4174995         6.14607231E-18
   31.5599995         6.15460426E-18
   31.7024994         6.16392452E-18
   31.8449993         6.17231130E-18
   31.9874992         6.17821779E-18
   32.1300011         6.18059841E-18
   32.2724991         6.17913513E-18
   32.4150009         6.17431391E-18
   32.5574989         6.16732961E-18
   32.7000008         6.15984321E-18
   32.8424988         6.15364308E-18
   32.9850006         6.15028555E-18
   33.1274986         6.15079096E-18
   33.2700005         6.15544468E-18
   33.4124985         6.16374585E-18
   33.5550003         6.17450457E-18
   33.6974983         6.18606401E-18
   33.8400002         6.19661180E-18
   33.9824982         6.20452420E-18
   34.1250000         6.20867416E-18
   34.2675018         6.20865596E-18
   34.4099998         6.20486665E-18
   34.5525017         6.19842788E-18
   34.6949997         6.19096298E-18
   34.8375015         6.18426158E-18
   34.9799995         6.17992054E-18
   35.1225014         6.17901767E-18
   35.2649994         6.18190742E-18
   35.4075012         6.18817042E-18
   35.5499992         6.19672099E-18
   35.6925011         6.20604538E-18
   35.8349991         6.21451819E-18
   35.9775009         6.22072494E-18
   36.1199989         6.22374126E-18
   36.2625008         6.22330699E-18
   36.4049988         6.21987874E-18
   36.5475006         6.21453929E-18
   36.6899986         6.20878583E-18
   36.8325005         6.20423220E-18
   36.9749985         6.20227716E-18
   37.1175003         6.20381034E-18
   37.2599983         6.20902282E-18
   37.4025002         6.21735956E-18
   37.5449982         6.22763438E-18
   37.6875000         6.23828144E-18
   37.8300018         6.24768772E-18
   37.9724998         6.25452354E-18
   38.1150017         6.25801714E-18
   38.2574997         6.25809448E-18
   38.4000015         6.25538216E-18
   38.5424995         6.25106758E-18
   38.6850014         6.24665126E-18
   38.8274994         6.24364405E-18
   38.9700012         6.24326024E-18
   39.1124992         6.24616778E-18
   39.2550011         6.25234103E-18
   39.3974991         6.26104421E-18
   39.5400009         6.27096913E-18
   39.6824989         6.28048750E-18
   39.8250008         6.28798879E-18
   39.9674988         6.29221610E-18
   40.1100006         6.29254076E-18
   40.2524986         6.28909721E-18
   40.3950005         6.28276183E-18
   40.5374985         6.27496938E-18
   40.6800003         6.26741639E-18
   40.8224983         6.26171877E-18
   40.9650002         6.25909082E-18
   41.1074982         6.26011032E-18
   41.2500000         6.26461515E-18
   41.3925018         6.27173593E-18
   41.5349998         6.28006688E-18
   41.6775017         6.28793833E-18
   41.8199997         6.29374390E-18
   41.9625015         6.29626556E-18
   42.1049995         6.29492718E-18
   42.2475014         6.28992853E-18
   42.3899994         6.28222293E-18
   42.5325012         6.27333404E-18
   42.6749992         6.26505107E-18
   42.8175011         6.25906931E-18
   42.9599991         6.25664857E-18
   43.1025009         6.25837283E-18
   43.2449989         6.26405308E-18
   43.3875008         6.27278728E-18
   43.5299988         6.28316095E-18
   43.6725006         6.29353793E-18
   43.8149986         6.30237760E-18
   43.9575005         6.30852810E-18
   44.0999985         6.31143481E-18
   44.2425003         6.31123753E-18
   44.3849983         6.30873365E-18
   44.5275002         6.30521028E-18
   44.6699982         6.30217659E-18
   44.8125000         6.30104377E-18
   44.9550018         6.30281393E-18
   45.0974998         6.30785932E-18
   45.2400017         6.31582631E-18
   45.3824997         6.32570822E-18
   45.5250015         6.33605336E-18
   45.6674995         6.34527270E-18
   45.8100014         6.35196873E-18
   45.9524994         6.35521293E-18
   46.0950012         6.35472779E-18
   46.2374992         6.35092524E-18
   46.3800011         6.34482065E-18
   46.5224991         6.33782932E-18
   46.6650009         6.33150180E-18
   46.8074989         6.32722858E-18
   46.9500008         6.32597458E-18
   47.0924988         6.32809423E-18
   47.2350006         6.33325294E-18
   47.3774986         6.34049366E-18
   47.5200005         6.34843212E-18
   47.6624985         6.35554835E-18
   47.8050003         6.36051516E-18
   47.9474983         6.36249005E-18
   48.0900002         6.36129684E-18
   48.2324982         6.35746452E-18
   48.3750000         6.35211307E-18
   48.5175018         6.34671075E-18
   48.6599998         6.34277544E-18
   48.8025017         6.34156445E-18
   48.9449997         6.34382513E-18
   49.0875015         6.34964518E-18
   49.2299995         6.35842404E-18
   49.3725014         6.36896977E-18
   49.5149994         6.37970864E-18
   49.6575012         6.38897058E-18
   49.7999992         6.39530761E-18
   49.9425011         6.39778006E-18
   50.0849991         6.39615672E-18
   50.2275009         6.39096947E-18
   50.3699989         6.38341813E-18
   50.5125008         6.37513103E-18
   50.6549988         6.36783281E-18
   50.7975006         6.36300456E-18
   50.9399986         6.36159463E-18
   51.0825005         6.36385490E-18
   51.2249985         6.36932008E-18
   51.3675003         6.37692435E-18
   51.5099983         6.38523338E-18
   51.6525002         6.39272847E-18
   51.7949982         6.39810555E-18
   51.9375000         6.40052630E-18
   52.0800018         6.39978597E-18
   52.2224998         6.39635813E-18
   52.3650017         6.39131151E-18
   52.5074997         6.38609737E-18
   52.6500015         6.38225429E-18
   52.7924995         6.38107969E-18
   52.9350014         6.38335320E-18
   53.0774994         6.38916332E-18
   53.2200012         6.39789090E-18
   53.3624992         6.40834315E-18
   53.5050011         6.41900965E-18
   53.6474991         6.42837333E-18
   53.7900009         6.43520915E-18
   53.9324989         6.43881111E-18
   54.0750008         6.43910766E-18
   54.2174988         6.43665300E-18
   54.3600006         6.43249890E-18
   54.5024986         6.42798084E-18
   54.6450005         6.42444795E-18
   54.7874985         6.42298797E-18
   54.9300003         6.42419648E-18
   55.0724983         6.42804122E-18
   55.2150002         6.43385423E-18
   55.3574982         6.44047126E-18
   55.5000000         6.44648114E-18
   55.6425018         6.45054425E-18
   55.7849998         6.45169734E-18
   55.9275017         6.44957604E-18
   56.0699997         6.44450129E-18
   56.2125015         6.43741483E-18
   56.3549995         6.42968938E-18
   56.4975014         6.42285190E-18
   56.6399994         6.41828587E-18
   56.7825012         6.41697478E-18
   56.9249992         6.41931446E-18
   57.0675011         6.42503979E-18
   57.2099991         6.43326569E-18
   57.3525009         6.44264551E-18
   57.4949989         6.45162166E-18
   57.6375008         6.45872797E-18
   57.7799988         6.46288827E-18
   57.9225006         6.46364721E-18
   58.0649986         6.46127403E-18
   58.2075005         6.45670965E-18
   58.3499985         6.45136730E-18
   58.4925003         6.44682939E-18
   58.6349983         6.44450873E-18
   58.7775002         6.44535866E-18
   58.9199982         6.44968316E-18
   59.0625000         6.45709139E-18
   59.2050018         6.46658039E-18
   59.3474998         6.47673527E-18
   59.4900017         6.48600052E-18
   59.6324997         6.49296787E-18
   59.7750015         6.49664138E-18
   59.9174995         6.49663517E-18
   60.0600014         6.49325945E-18
   60.2024994         6.48747704E-18
   60.3450012         6.48072435E-18
   60.4874992         6.47462762E-18
   60.6300011         6.47066832E-18
   60.7724991         6.46987216E-18
   60.9150009         6.47259482E-18
   61.0574989         6.47845457E-18
   61.2000008         6.48642942E-18
   61.3424988         6.49508628E-18
   61.4850006         6.50288907E-18
   61.6274986         6.50851390E-18
   61.7700005         6.51110959E-18
   61.9124985         6.51045364E-18
   62.0550003         6.50699271E-18
   62.1974983         6.50175252E-18
   62.3400002         6.49614714E-18
   62.4824982         6.49170807E-18
   62.6250000         6.48978115E-18
   62.7675018         6.49124485E-18
   62.9099998         6.49631216E-18
   63.0525017         6.50445865E-18
   63.1949997         6.51450930E-18
   63.3375015         6.52487264E-18
   63.4799995         6.53386864E-18
   63.6225014         6.54007870E-18
   63.7649994         6.54263675E-18
   63.9075012         6.54139309E-18
   64.0500031         6.53692466E-18
   64.1924973         6.53039903E-18
   64.3349991         6.52332498E-18
   64.4775009         6.51725513E-18
   64.6200027         6.51348732E-18
   64.7624969         6.51282351E-18
   64.9049988         6.51541672E-18
   65.0475006         6.52073880E-18
   65.1900024         6.52767719E-18
   65.3324966         6.53475000E-18
   65.4749985         6.54041164E-18
   65.6175003         6.54338246E-18
   65.7600021         6.54293909E-18
   65.9024963         6.53908732E-18
   66.0449982         6.53257824E-18
   66.1875000         6.52475683E-18
   66.3300018         6.51727746E-18
   66.4725037         6.51176224E-18
   66.6149979         6.50947177E-18
   66.7574997         6.51106327E-18
   66.9000015         6.51647551E-18
   67.0425034         6.52495577E-18
   67.1849976         6.53520826E-18
   67.3274994         6.54563818E-18
   67.4700012         6.55463873E-18
   67.6125031         6.56089263E-18
   67.7549973         6.56361819E-18
   67.8974991         6.56273021E-18
   68.0400009         6.55886232E-18
   68.1825027         6.55324535E-18
   68.3249969         6.54745591E-18
   68.4674988         6.54308260E-18
   68.6100006         6.54138440E-18
   68.7525024         6.54302801E-18
   68.8949966         6.54796049E-18
   69.0374985         6.55543944E-18
   69.1800003         6.56421128E-18
   69.3225021         6.57278418E-18
   69.4649963         6.57973167E-18
   69.6074982         6.58397097E-18
   69.7500000         6.58495697E-18
   69.8925018         6.58278314E-18
   70.0350037         6.57816044E-18
   70.1774979         6.57228952E-18
   70.3199997         6.56663988E-18
   70.4625015         6.56266404E-18
   70.6050034         6.56150350E-18
   70.7474976         6.56374764E-18
   70.8899994         6.56929389E-18
   71.0325012         6.57736097E-18
   71.1750031         6.58665145E-18
   71.3174973         6.59563049E-18
   71.4599991         6.60285178E-18
   71.6025009         6.60725569E-18
   71.7450027         6.60836907E-18
   71.8874969         6.60637640E-18
   72.0299988         6.60205645E-18
   72.1725006         6.59660863E-18
   72.3150024         6.59141353E-18
   72.4574966         6.58777062E-18
   72.5999985         6.58665889E-18
   72.7425003         6.58854486E-18
   72.8850021         6.59328750E-18
   73.0274963         6.60015062E-18
   73.1699982         6.60794018E-18
   73.3125000         6.61524046E-18
   73.4550018         6.62071516E-18
   73.5975037         6.62339936E-18
   73.7399979         6.62291587E-18
   73.8824997         6.61955711E-18
   74.0250015         6.61421352E-18
   74.1675034         6.60817303E-18
   74.3099976         6.60283937E-18
   74.4524994         6.59944173E-18
   74.5950012         6.59879363E-18
   74.7375031         6.60115068E-18
   74.8799973         6.60617498E-18
   75.0224991         6.61300584E-18
   75.1650009         6.62042316E-18
   75.3075027         6.62707494E-18
   75.4499969         6.63173445E-18
   75.5924988         6.63355217E-18
   75.7350006         6.63224151E-18
   75.8775024         6.62816599E-18
   76.0199966         6.62228556E-18
   76.1624985         6.61596838E-18
   76.3050003         6.61070545E-18
   76.4475021         6.60778922E-18
   76.5899963         6.60804151E-18
   76.7324982         6.61164595E-18
   76.8750000         6.61813229E-18
   77.0175018         6.62649219E-18
   77.1600037         6.63539637E-18
   77.3024979         6.64346469E-18
   77.4449997         6.64952338E-18
   77.5875015         6.65282052E-18
   77.7300034         6.65315842E-18
   77.8724976         6.65093000E-18
   78.0149994         6.64705383E-18
   78.1575012         6.64280047E-18
   78.3000031         6.63954882E-18
   78.4424973         6.63849582E-18
   78.5849991         6.64039379E-18
   78.7275009         6.64537465E-18
   78.8700027         6.65290737E-18
   79.0124969         6.66190999E-18
   79.1549988         6.67098458E-18
   79.2975006         6.67872244E-18
   79.4400024         6.68399572E-18
   79.5824966         6.68618154E-18
   79.7249985         6.68526709E-18
   79.8675003         6.68182395E-18
   80.0100021         6.67688320E-18
   80.1524963         6.67172946E-18
   80.2949982         6.66765725E-18
   80.4375000         6.66572661E-18
   80.5800018         6.66655999E-18
   80.7225037         6.67020620E-18
   80.8649979         6.67611269E-18
   81.0074997         6.68322106E-18
   81.1500015         6.69017641E-18
   81.2925034         6.69561347E-18
   81.4349976         6.69845732E-18
   81.5774994         6.69816036E-18
   81.7200012         6.69481813E-18
   81.8625031         6.68913871E-18
   82.0049973         6.68227518E-18
   82.1474991         6.67557295E-18
   82.2900009         6.67028892E-18
   82.4325027         6.66734705E-18
   82.5749969         6.66717459E-18
   82.7174988         6.66963545E-18
   82.8600006         6.67406376E-18
   83.0025024         6.67938915E-18
   83.1449966         6.68433941E-18
   83.2874985         6.68768411E-18
   83.4300003         6.68849020E-18
   83.5725021         6.68633167E-18
   83.7149963         6.68140292E-18
   83.8574982         6.67450258E-18
   84.0000000         6.66687928E-18
   84.1425018         6.65996612E-18
   84.2850037         6.65507624E-18
   84.4274979         6.65312079E-18
   84.5699997         6.65443187E-18
   84.7125015         6.65871129E-18
   84.8550034         6.66511615E-18
   84.9974976         6.67244083E-18
   85.1399994         6.67935978E-18
   85.2825012         6.68467359E-18