  -30.0000000         9.78447028E-19
  -29.8575001         9.80199823E-19
  -29.7150002         9.83398221E-19
  -29.5725002         9.87514375E-19
  -29.4300003         9.91906497E-19
  -29.2875004         9.95948929E-19
  -29.1450005         9.99149704E-19
  -29.0025005         1.00123999E-18
  -28.8600006         1.00221586E-18
  -28.7175007         1.00232742E-18
  -28.5750008         1.00202137E-18
  -28.4325008         1.00184714E-18
  -28.2900009         1.00234490E-18
  -28.1474991         1.00393432E-18
  -28.0049992         1.00682046E-18
  -27.8624992         1.01094633E-18
  -27.7199993         1.01599327E-18
  -27.5774994         1.02143943E-18
  -27.4349995         1.02666452E-18
  -27.2924995         1.03107712E-18
  -27.1499996         1.03423767E-18
  -27.0074997         1.03595076E-18
  -26.8649998         1.03630149E-18
  -26.7224998         1.03563736E-18
  -26.5799999         1.03449213E-18
  -26.4375000         1.03347873E-18
  -26.2950001         1.03316844E-18
  -26.1525002         1.03398280E-18
  -26.0100002         1.03611754E-18
  -25.8675003         1.03950423E-18
  -25.7250004         1.04382893E-18
  -25.5825005         1.04859091E-18
  -25.4400005         1.05320099E-18
  -25.2975006         1.05709774E-18
  -25.1550007         1.05986517E-18
  -25.0125008         1.06131925E-18
  -24.8700008         1.06154890E-18
  -24.7275009         1.06089822E-18
  -24.5849991         1.05989278E-18
  -24.4424992         1.05912712E-18
  -24.2999992         1.05913850E-18
  -24.1574993         1.06029572E-18
  -24.0149994         1.06272681E-18
  -23.8724995         1.06629837E-18
  -23.7299995         1.07064603E-18
  -23.5874996         1.07525197E-18
  -23.4449997         1.07954856E-18
  -23.3024998         1.08302851E-18
  -23.1599998         1.08534410E-18
  -23.0174999         1.08637879E-18
  -22.8750000         1.08627023E-18
  -22.7325001         1.08538794E-18
  -22.5900002         1.08426152E-18
  -22.4475002         1.08347208E-18
  -22.3050003         1.08352864E-18
  -22.1625004         1.08475969E-18
  -22.0200005         1.08724351E-18
  -21.8775005         1.09078943E-18
  -21.7350006         1.09498178E-18
  -21.5925007         1.09927051E-18
  -21.4500008         1.10308898E-18
  -21.3075008         1.10597274E-18
  -21.1650009         1.10765140E-18
  -21.0224991         1.10810335E-18
  -20.8799992         1.10755679E-18
  -20.7374992         1.10644537E-18
  -20.5949993         1.10532464E-18
  -20.4524994         1.10476361E-18
  -20.3099995         1.10523107E-18
  -20.1674995         1.10699906E-18
  -20.0249996         1.11008155E-18
  -19.8824997         1.11422552E-18
  -19.7399998         1.11895875E-18
  -19.5974998         1.12368516E-18
  -19.4549999         1.12781144E-18
  -19.3125000         1.13087656E-18
  -19.1700001         1.13264962E-18
  -19.0275002         1.13318098E-18
  -18.8850002         1.13279097E-18
  -18.7425003         1.13200225E-18
  -18.6000004         1.13143419E-18
  -18.4575005         1.13167727E-18
  -18.3150005         1.13317561E-18
  -18.1725006         1.13613867E-18
  -18.0300007         1.14049647E-18
  -17.8875008         1.14590240E-18
  -17.7450008         1.15179089E-18
  -17.6025009         1.15747631E-18
  -17.4599991         1.16228016E-18
  -17.3174992         1.16565992E-18
  -17.1749992         1.16731987E-18
  -17.0324993         1.16727034E-18
  -16.8899994         1.16583011E-18
  -16.7474995         1.16356209E-18
  -16.6049995         1.16116026E-18
  -16.4624996         1.15931203E-18
  -16.3199997         1.15856437E-18
  -16.1774998         1.15922570E-18
  -16.0349998         1.16131536E-18
  -15.8924999         1.16457383E-18
  -15.7500000         1.16852145E-18
  -15.6075001         1.17255757E-18
  -15.4650002         1.17607764E-18
  -15.3225002         1.17858937E-18
  -15.1800003         1.17980502E-18
  -15.0375004         1.17969718E-18
  -14.8950005         1.17850262E-18
  -14.7524996         1.17667352E-18
  -14.6099997         1.17478072E-18
  -14.4674997         1.17339220E-18
  -14.3249998         1.17294800E-18
  -14.1824999         1.17366372E-18
  -14.0400000         1.17548290E-18
  -13.8975000         1.17809100E-18
  -13.7550001         1.18098344E-18
  -13.6125002         1.18357562E-18
  -13.4700003         1.18532624E-18
  -13.3275003         1.18585078E-18
  -13.1850004         1.18499961E-18
  -13.0424995         1.18289082E-18
  -12.8999996         1.17989601E-18
  -12.7574997         1.17657457E-18
  -12.6149998         1.17357573E-18
  -12.4724998         1.17151915E-18
  -12.3299999         1.17087840E-18
  -12.1875000         1.17188993E-18
  -12.0450001         1.17450310E-18
  -11.9025002         1.17839054E-18
  -11.7600002         1.18301210E-18
  -11.6175003         1.18772290E-18
  -11.4750004         1.19190595E-18
  -11.3325005         1.19509070E-18
  -11.1899996         1.19704057E-18
  -11.0474997         1.19778948E-18
  -10.9049997         1.19761794E-18
  -10.7624998         1.19698618E-18
  -10.6199999         1.19643104E-18
  -10.4775000         1.19645544E-18
  -10.3350000         1.19742676E-18
  -10.1925001         1.19949998E-18
  -10.0500002         1.20258464E-18
  -9.90750027         1.20635617E-18
  -9.76500034         1.21031609E-18
  -9.62250042         1.21388631E-18
  -9.47999954         1.21652543E-18
  -9.33749962         1.21784178E-18
  -9.19499969         1.21767335E-18
  -9.05249977         1.21612466E-18
  -8.90999985         1.21354158E-18
  -8.76749992         1.21043903E-18
  -8.62500000         1.20739346E-18
  -8.48250008         1.20492743E-18
  -8.34000015         1.20341162E-18
  -8.19750023         1.20300092E-18
  -8.05500031         1.20361717E-18
  -7.91249990         1.20498005E-18
  -7.76999998         1.20666957E-18
  -7.62750006         1.20821785E-18
  -7.48500013         1.20920633E-18
  -7.34250021         1.20935398E-18
  -7.19999981         1.20858129E-18
  -7.05749989         1.20703260E-18
  -6.91499996         1.20505440E-18
  -6.77250004         1.20312500E-18
  -6.63000011         1.20175374E-18
  -6.48750019         1.20136941E-18
  -6.34499979         1.20222472E-18
  -6.20249987         1.20433609E-18
  -6.05999994         1.20748321E-18
  -5.91750002         1.21125288E-18
  -5.77500010         1.21512853E-18
  -5.63250017         1.21859400E-18
  -5.48999977         1.22123715E-18
  -5.34749985         1.22282772E-18
  -5.20499992         1.22335680E-18
  -5.06250000         1.22303482E-18
  -4.92000008         1.22224890E-18
  -4.77750015         1.22148551E-18
  -4.63500023         1.22123229E-18
  -4.49249983         1.22187398E-18
  -4.34999990         1.22360785E-18
  -4.20749998         1.22638604E-18
  -4.06500006         1.22991676E-18
  -3.92249990         1.23371310E-18
  -3.77999997         1.23718695E-18
  -3.63750005         1.23977127E-18
  -3.49499989         1.24103789E-18
  -3.35249996         1.24078953E-18
  -3.21000004         1.23909898E-18
  -3.06750011         1.23629660E-18
  -2.92499995         1.23290753E-18
  -2.78250003         1.22955083E-18
  -2.64000010         1.22682765E-18
  -2.49749994         1.22521475E-18
  -2.35500002         1.22497870E-18
  -2.21250010         1.22613458E-18
  -2.06999993         1.22844634E-18
  -1.92750001         1.23147651E-18
  -1.78499997         1.23467305E-18
  -1.64250004         1.23748567E-18
  -1.50000000         1.23948010E-18
  -1.35749996         1.24043229E-18
  -1.21500003         1.24037470E-18
  -1.07249999         1.23958960E-18
 -0.930000007         1.23854187E-18
 -0.787500024         1.23777559E-18
 -0.644999981         1.23779234E-18
 -0.502499998         1.23894161E-18
 -0.360000014         1.24134415E-18
 -0.217500001         1.24486505E-18
  -7.50000030E-02     1.24913444E-18
   6.75000027E-02     1.25361869E-18
  0.209999993         1.25771933E-18
  0.352499992         1.26088516E-18
  0.495000005         1.26272233E-18
  0.637499988         1.26307398E-18
  0.779999971         1.26206038E-18
  0.922500014         1.26006087E-18
   1.06500006         1.25764540E-18
   1.20749998         1.25546134E-18
   1.35000002         1.25410269E-18
   1.49249995         1.25398565E-18
   1.63499999         1.25526354E-18
   1.77750003         1.25779657E-18
   1.91999996         1.26118336E-18
   2.06250000         1.26484363E-18
   2.20499992         1.26813622E-18
   2.34750009         1.27048232E-18
   2.49000001         1.27147679E-18
   2.63249993         1.27096270E-18
   2.77500010         1.26906132E-18
   2.91750002         1.26615234E-18
   3.05999994         1.26280742E-18
   3.20250010         1.25968647E-18
   3.34500003         1.25741679E-18
   3.48749995         1.25647205E-18
   3.63000011         1.25708261E-18
   3.77250004         1.25919068E-18
   3.91499996         1.26246663E-18
   4.05749989         1.26638250E-18
   4.19999981         1.27032463E-18
   4.34250021         1.27371876E-18
   4.48500013         1.27614261E-18
   4.62750006         1.27739868E-18
   4.76999998         1.27753382E-18
   4.91249990         1.27681490E-18
   5.05499983         1.27565540E-18
   5.19750023         1.27452371E-18
   5.34000015         1.27384429E-18
   5.48250008         1.27391026E-18
   5.62500000         1.27482140E-18
   5.76749992         1.27646242E-18
   5.90999985         1.27852168E-18
   6.05249977         1.28055458E-18
   6.19500017         1.28207649E-18
   6.33750010         1.28267558E-18
   6.48000002         1.28211061E-18
   6.62249994         1.28037426E-18
   6.76499987         1.27771177E-18
   6.90749979         1.27457490E-18
   7.05000019         1.27153594E-18
   7.19250011         1.26917392E-18
   7.33500004         1.26796231E-18
   7.47749996         1.26818110E-18
   7.61999989         1.26987051E-18
   7.76249981         1.27282696E-18
   7.90500021         1.27664864E-18
   8.04749966         1.28081142E-18
   8.18999958         1.28476390E-18
   8.33250046         1.28803312E-18
   8.47500038         1.29031035E-18
   8.61750031         1.29151049E-18
   8.76000023         1.29178708E-18
   8.90250015         1.29149787E-18
   9.04500008         1.29112771E-18
   9.18750000         1.29117620E-18
   9.32999992         1.29204578E-18
   9.47249985         1.29394716E-18
   9.61499977         1.29684932E-18
   9.75749969         1.30048157E-18
   9.89999962         1.30438535E-18
   10.0424995         1.30800829E-18
   10.1850004         1.31081140E-18
   10.3275003         1.31236888E-18
   10.4700003         1.31245449E-18
   10.6125002         1.31107962E-18
   10.7550001         1.30849830E-18
   10.8975000         1.30516383E-18
   11.0400000         1.30164893E-18
   11.1824999         1.29854338E-18
   11.3249998         1.29634308E-18
   11.4674997         1.29535584E-18
   11.6099997         1.29564691E-18
   11.7524996         1.29703109E-18
   11.8950005         1.29912396E-18
   12.0375004         1.30142776E-18
   12.1800003         1.30344536E-18
   12.3225002         1.30478901E-18
   12.4650002         1.30525368E-18
   12.6075001         1.30485829E-18
   12.7500000         1.30383186E-18
   12.8924999         1.30256421E-18
   13.0349998         1.30152320E-18
   13.1774998         1.30116327E-18
   13.3199997         1.30183081E-18
   13.4624996         1.30369010E-18
   13.6049995         1.30668367E-18
   13.7475004         1.31052954E-18
   13.8900003         1.31476874E-18
   14.0325003         1.31884963E-18
   14.1750002         1.32223901E-18
   14.3175001         1.32453154E-18
   14.4600000         1.32553387E-18
   14.6025000         1.32530330E-18
   14.7449999         1.32413304E-18
   14.8874998         1.32248323E-18
   15.0299997         1.32088481E-18
   15.1724997         1.31983015E-18
   15.3149996         1.31967775E-18
   15.4575005         1.32059075E-18
   15.6000004         1.32250670E-18
   15.7425003         1.32515658E-18
   15.8850002         1.32811395E-18
   16.0275002         1.33087880E-18
   16.1700001         1.33297178E-18
   16.3125000         1.33403419E-18
   16.4549999         1.33390670E-18
   16.5974998         1.33267482E-18
   16.7399998         1.33066002E-18
   16.8824997         1.32836552E-18
   17.0249996         1.32637264E-18
   17.1674995         1.32522265E-18
   17.3099995         1.32530288E-18
   17.4524994         1.32676472E-18
   17.5949993         1.32949917E-18
   17.7374992         1.33315676E-18
   17.8799992         1.33721883E-18
   18.0224991         1.34109428E-18
   18.1650009         1.34422578E-18
   18.3075008         1.34618547E-18
   18.4500008         1.34674620E-18
   18.5925007         1.34591943E-18
   18.7350006         1.34395167E-18
   18.8775005         1.34127822E-18
   19.0200005         1.33844203E-18
   19.1625004         1.33598933E-18
   19.3050003         1.33436041E-18
   19.4475002         1.33380589E-18
   19.5900002         1.33433787E-18
   19.7325001         1.33573859E-18
   19.8750000         1.33761836E-18
   20.0174999         1.33950744E-18
   20.1599998         1.34096172E-18
   20.3024998         1.34165955E-18
   20.4449997         1.34146186E-18
   20.5874996         1.34043760E-18
   20.7299995         1.33884197E-18
   20.8724995         1.33706198E-18
   21.0149994         1.33553800E-18
   21.1574993         1.33467711E-18
   21.2999992         1.33476873E-18
   21.4424992         1.33592667E-18
   21.5849991         1.33805863E-18
   21.7275009         1.34088531E-18
   21.8700008         1.34399251E-18
   22.0125008         1.34692611E-18
   22.1550007         1.34928843E-18
   22.2975006         1.35082957E-18
   22.4400005         1.35150383E-18
   22.5825005         1.35147757E-18
   22.7250004         1.35109014E-18
   22.8675003         1.35077591E-18
   23.0100002         1.35097040E-18
   23.1525002         1.35201523E-18
   23.2950001         1.35408515E-18
   23.4375000         1.35714696E-18
   23.5799999         1.36095757E-18
   23.7224998         1.36510133E-18
   23.8649998         1.36906032E-18
   24.0074997         1.37230742E-18
   24.1499996         1.37440815E-18
   24.2924995         1.37510991E-18
   24.4349995         1.37439843E-18
   24.5774994         1.37250781E-18
   24.7199993         1.36987592E-18
   24.8624992         1.36705431E-18
   25.0049992         1.36459582E-18
   25.1474991         1.36294312E-18
   25.2900009         1.36234413E-18
   25.4325008         1.36281170E-18
   25.5750008         1.36413633E-18
   25.7175007         1.36593896E-18
   25.8600006         1.36775689E-18
   26.0025005         1.36914066E-18
   26.1450005         1.36974409E-18
   26.2875004         1.36939544E-18
   26.4300003         1.36813926E-18
   26.5725002         1.36623561E-18
   26.7150002         1.36411844E-18
   26.8575001         1.36231622E-18
   27.0000000         1.36134542E-18
   27.1424999         1.36160277E-18
   27.2849998         1.36327182E-18
   27.4274998         1.36627769E-18
   27.5699997         1.37029923E-18
   27.7124996         1.37482991E-18
   27.8549995         1.37928138E-18
   27.9974995         1.38310120E-18
   28.1399994         1.38587494E-18
   28.2824993         1.38739902E-18
   28.4249992         1.38770270E-18
   28.5674992         1.38703072E-18
   28.7099991         1.38578437E-18
   28.8525009         1.38443741E-18
   28.9950008         1.38344189E-18
   29.1375008         1.38314018E-18
   29.2800007         1.38369087E-18
   29.4225006         1.38503308E-18
   29.5650005         1.38689620E-18
   29.7075005         1.38885145E-18
   29.8500004         1.39040789E-18
   29.9925003         1.39112185E-18
   30.1350002         1.39070599E-18
   30.2775002         1.38910229E-18
   30.4200001         1.38650546E-18
   30.5625000         1.38333105E-18
   30.7049999         1.38013441E-18
   30.8474998         1.37750574E-18
   30.9899998         1.37595477E-18
   31.1324997         1.37581725E-18
   31.2749996         1.37719182E-18
   31.4174995         1.37992245E-18
   31.5599995         1.38362212E-18
   31.7024994         1.38774230E-18
   31.8449993         1.39166748E-18
   31.9874992         1.39482897E-18
   32.1300011         1.39681275E-18
   32.2724991         1.39744120E-18
   32.4150009         1.39680882E-18
   32.5574989         1.39526758E-18
   32.7000008         1.39335234E-18
   32.8424988         1.39167493E-18
   32.9850006         1.39079998E-18
   33.1274986         1.39113622E-18
   33.2700005         1.39286007E-18
   33.4124985         1.39588796E-18
   33.5550003         1.39989855E-18
   33.6974983         1.40439748E-18
   33.8400002         1.40880615E-18
   33.9824982         1.41256506E-18
   34.1250000         1.41522900E-18
   34.2675018         1.41654639E-18
   34.4099998         1.41650017E-18
   34.5525017         1.41530375E-18
   34.6949997         1.41335740E-18
   34.8375015         1.41116185E-18
   34.9799995         1.40921126E-18
   35.1225014         1.40789097E-18
   35.2649994         1.40740025E-18
   35.4075012         1.40771944E-18
   35.5499992         1.40862758E-18
   35.6925011         1.40976247E-18
   35.8349991         1.41071063E-18
   35.9775009         1.41110054E-18
   36.1199989         1.41068312E-18
   36.2625008         1.40938600E-18
   36.4049988         1.40733149E-18
   36.5475006         1.40482234E-18
   36.6899986         1.40229427E-18
   36.8325005         1.40024183E-18
   36.9749985         1.39913010E-18
   37.1175003         1.39930639E-18
   37.2599983         1.40092684E-18
   37.4025002         1.40391834E-18
   37.5449982         1.40798341E-18
   37.6875000         1.41265564E-18
   37.8300018         1.41739125E-18
   37.9724998         1.42167273E-18
   38.1150017         1.42510843E-18
   38.2574997         1.42749298E-18
   38.4000015         1.42883343E-18
   38.5424995         1.42932198E-18
   38.6850014         1.42928176E-18
   38.8274994         1.42908851E-18
   38.9700012         1.42909182E-18
   39.1124992         1.42954522E-18
   39.2550011         1.43055872E-18
   39.3974991         1.43207618E-18
   39.5400009         1.43388606E-18
   39.6824989         1.43566449E-18
   39.8250008         1.43704216E-18
   39.9674988         1.43769295E-18
   40.1100006         1.43741305E-18
   40.2524986         1.43618376E-18
   40.3950005         1.43418953E-18
   40.5374985         1.43179050E-18
   40.6800003         1.42945361E-18
   40.8224983         1.42765542E-18
   40.9650002         1.42678605E-18
   41.1074982         1.42707102E-18
   41.2500000         1.42852830E-18
   41.3925018         1.43097086E-18
   41.5349998         1.43404363E-18
   41.6775017         1.43729032E-18
   41.8199997         1.44023539E-18
   41.9625015         1.44246702E-18
   42.1049995         1.44370955E-18
   42.2475014         1.44386764E-18
   42.3899994         1.44304512E-18
   42.5325012         1.44151886E-18
   42.6749992         1.43967735E-18
   42.8175011         1.43793717E-18
   42.9599991         1.43664863E-18
   43.1025009         1.43601987E-18
   43.2449989         1.43607622E-18
   43.3875008         1.43666094E-18
   43.5299988         1.43748315E-18
   43.6725006         1.43819401E-18
   43.8149986         1.43847329E-18
   43.9575005         1.43810406E-18
   44.0999985         1.43702645E-18
   44.2425003         1.43535565E-18
   44.3849983         1.43336390E-18
   44.5275002         1.43143584E-18
   44.6699982         1.42999758E-18
   44.8125000         1.42943386E-18
   44.9550018         1.43000978E-18
   45.0974998         1.43180807E-18
   45.2400017         1.43470114E-18
   45.3824997         1.43836565E-18
   45.5250015         1.44233901E-18
   45.6674995         1.44611116E-18
   45.8100014         1.44922788E-18
   45.9524994         1.45137803E-18
   46.0950012         1.45245388E-18
   46.2374992         1.45256183E-18
   46.3800011         1.45199014E-18
   46.5224991         1.45114197E-18
   46.6650009         1.45045252E-18
   46.8074989         1.45030580E-18
   46.9500008         1.45096372E-18
   47.0924988         1.45252140E-18
   47.2350006         1.45489148E-18
   47.3774986         1.45781567E-18
   47.5200005         1.46091491E-18
   47.6624985         1.46376051E-18
   47.8050003         1.46596247E-18
   47.9474983         1.46725545E-18
   48.0900002         1.46755758E-18
   48.2324982         1.46699127E-18
   48.3750000         1.46585483E-18
   48.5175018         1.46455285E-18
   48.6599998         1.46350202E-18
   48.8025017         1.46303786E-18
   48.9449997         1.46334403E-18
   49.0875015         1.46441626E-18
   49.2299995         1.46607279E-18
   49.3725014         1.46799133E-18
   49.5149994         1.46977577E-18
   49.6575012         1.47102967E-18
   49.7999992         1.47142837E-18
   49.9425011         1.47078338E-18
   50.0849991         1.46908373E-18
   50.2275009         1.46651171E-18
   50.3699989         1.46342013E-18
   50.5125008         1.46027715E-18
   50.6549988         1.45757899E-18
   50.7975006         1.45575133E-18
   50.9399986         1.45506074E-18
   51.0825005         1.45556108E-18
   51.2249985         1.45708547E-18
   51.3675003         1.45928639E-18
   51.5099983         1.46171210E-18
   51.6525002         1.46390186E-18
   51.7949982         1.46547360E-18
   51.9375000         1.46619284E-18
   52.0800018         1.46600941E-18
   52.2224998         1.46505960E-18
   52.3650017         1.46363943E-18
   52.5074997         1.46215009E-18
   52.6500015         1.46102471E-18
   52.7924995         1.46064556E-18
   52.9350014         1.46126749E-18
   53.0774994         1.46295908E-18
   53.2200012         1.46558155E-18
   53.3624992         1.46880828E-18
   53.5050011         1.47219041E-18
   53.6474991         1.47525015E-18
   53.7900009         1.47757784E-18
   53.9324989         1.47891684E-18
   54.0750008         1.47920997E-18
   54.2174988         1.47860458E-18
   54.3600006         1.47741654E-18
   54.5024986         1.47606751E-18
   54.6450005         1.47500138E-18
   54.7874985         1.47460433E-18
   54.9300003         1.47513517E-18
   55.0724983         1.47667352E-18
   55.2150002         1.47909944E-18
   55.3574982         1.48210841E-18
   55.5000000         1.48526679E-18
   55.6425018         1.48809327E-18
   55.7849998         1.49015884E-18
   55.9275017         1.49117824E-18
   56.0699997         1.49107029E-18
   56.2125015         1.48997397E-18
   56.3549995         1.48821424E-18
   56.4975014         1.48622984E-18
   56.6399994         1.48447973E-18
   56.7825012         1.48335187E-18
   56.9249992         1.48309276E-18
   57.0675011         1.48376505E-18
   57.2099991         1.48524405E-18
   57.3525009         1.48724148E-18
   57.4949989         1.48935948E-18
   57.6375008         1.49116604E-18
   57.7799988         1.49227839E-18
   57.9225006         1.49244589E-18
   58.0649986         1.49161220E-18
   58.2075005         1.48994088E-18
   58.3499985         1.48779290E-18
   58.4925003         1.48565515E-18
   58.6349983         1.48403843E-18
   58.7775002         1.48336386E-18
   58.9199982         1.48387579E-18
   59.0625000         1.48559053E-18
   59.2050018         1.48830089E-18
   59.3474998         1.49162430E-18
   59.4900017         1.49508212E-18
   59.6324997         1.49819232E-18
   59.7750015         1.50055361E-18
   59.9174995         1.50191267E-18
   60.0600014         1.50220787E-18
   60.2024994         1.50157879E-18
   60.3450012         1.50034619E-18
   60.4874992         1.49895332E-18
   60.6300011         1.49788140E-18
   60.7724991         1.49754825E-18
   60.9150009         1.49821310E-18
   61.0574989         1.49991110E-18
   61.2000008         1.50244030E-18
   61.3424988         1.50540058E-18
   61.4850006         1.50828103E-18
   61.6274986         1.51057304E-18
   61.7700005         1.51187637E-18
   61.9124985         1.51197873E-18
   62.0550003         1.51089130E-18
   62.1974983         1.50883875E-18
   62.3400002         1.50621214E-18
   62.4824982         1.50349775E-18
   62.6250000         1.50119333E-18
   62.7675018         1.49972095E-18
   62.9099998         1.49935358E-18
   63.0525017         1.50016256E-18
   63.1949997         1.50199849E-18
   63.3375015         1.50451363E-18
   63.4799995         1.50723071E-18
   63.6225014         1.50963967E-18
   63.7649994         1.51130737E-18
   63.9075012         1.51196736E-18
   64.0500031         1.51157517E-18
   64.1924973         1.51030907E-18
   64.3349991         1.50852556E-18
   64.4775009         1.50667898E-18
   64.6200027         1.50523224E-18
   64.7624969         1.50456957E-18
   64.9049988         1.50493281E-18
   65.0475006         1.50638544E-18
   65.1900024         1.50880484E-18
   65.3324966         1.51190511E-18
   65.4749985         1.51528662E-18
   65.6175003         1.51850756E-18
   65.7600021         1.52116829E-18
   65.9024963         1.52298892E-18
   66.0449982         1.52386459E-18
   66.1875000         1.52388444E-18
   66.3300018         1.52329890E-18
   66.4725037         1.52245570E-18
   66.6149979         1.52171289E-18
   66.7574997         1.52135482E-18
   66.9000015         1.52153597E-18
   67.0425034         1.52225459E-18
   67.1849976         1.52336746E-18
   67.3274994         1.52462487E-18
   67.4700012         1.52572616E-18
   67.6125031         1.52637664E-18
   67.7549973         1.52634675E-18
   67.8974991         1.52551988E-18
   68.0400009         1.52392653E-18
   68.1825027         1.52175683E-18
   68.3249969         1.51933743E-18
   68.4674988         1.51707913E-18
   68.6100006         1.51539281E-18
   68.7525024         1.51460255E-18
   68.8949966         1.51486993E-18
   69.0374985         1.51615909E-18
   69.1800003         1.51824369E-18
   69.3225021         1.52076070E-18
   69.4649963         1.52328867E-18
   69.6074982         1.52543086E-18
   69.7500000         1.52688680E-18
   69.8925018         1.52749633E-18
   70.0350037         1.52725655E-18
   70.1774979         1.52631553E-18
   70.3199997         1.52494654E-18
   70.4625015         1.52350353E-18
   70.6050034         1.52236129E-18
   70.7474976         1.52184472E-18
   70.8899994         1.52216029E-18
   71.0325012         1.52334605E-18
   71.1750031         1.52525384E-18
   71.3174973         1.52757646E-18
   71.4599991         1.52991428E-18
   71.6025009         1.53186777E-18
   71.7450027         1.53312705E-18
   71.8874969         1.53353805E-18
   72.0299988         1.53312757E-18
   72.1725006         1.53208532E-18
   72.3150024         1.53071623E-18
   72.4574966         1.52937630E-18
   72.5999985         1.52840654E-18
   72.7425003         1.52807835E-18
   72.8850021         1.52854943E-18
   73.0274963         1.52983921E-18
   73.1699982         1.53182114E-18
   73.3125000         1.53424560E-18
   73.4550018         1.53678257E-18
   73.5975037         1.53909164E-18
   73.7399979         1.54089665E-18
   73.8824997         1.54205285E-18
   74.0250015         1.54258110E-18
   74.1675034         1.54265813E-18
   74.3099976         1.54256911E-18
   74.4524994         1.54262763E-18
   74.5950012         1.54309685E-18
   74.7375031         1.54412193E-18
   74.8799973         1.54569968E-18
   75.0224991         1.54767695E-18
   75.1650009         1.54978419E-18
   75.3075027         1.55168288E-18
   75.4499969         1.55302964E-18
   75.5924988         1.55353742E-18
   75.7350006         1.55303615E-18
   75.8775024         1.55151652E-18
   76.0199966         1.54915336E-18
   76.1624985         1.54628822E-18
   76.3050003         1.54337613E-18
   76.4475021         1.54089862E-18
   76.5899963         1.53926504E-18
   76.7324982         1.53872200E-18
   76.8750000         1.53930330E-18
   77.0175018         1.54082593E-18
   77.1600037         1.54293555E-18
   77.3024979         1.54518693E-18
   77.4449997         1.54713401E-18
   77.5875015         1.54841759E-18
   77.7300034         1.54882559E-18
   77.8724976         1.54832629E-18
   78.0149994         1.54707724E-18
   78.1575012         1.54539879E-18
   78.3000031         1.54372571E-18
   78.4424973         1.54253075E-18
   78.5849991         1.54223276E-18
   78.7275009         1.54311060E-18
   78.8700027         1.54523098E-18
   79.0124969         1.54842741E-18
   79.1549988         1.55232860E-18
   79.2975006         1.55643628E-18
   79.4400024         1.56023510E-18
   79.5824966         1.56330012E-18
   79.7249985         1.56537975E-18
   79.8675003         1.56643100E-18
   80.0100021         1.56660760E-18
   80.1524963         1.56620890E-18
   80.2949982         1.56560764E-18
   80.4375000         1.56517234E-18
   80.5800018         1.56519664E-18
   80.7225037         1.56583749E-18
   80.8649979         1.56708343E-18
   81.0074997         1.56873873E-18
   81.1500015         1.57045306E-18
   81.2925034         1.57178089E-18
   81.4349976         1.57227554E-18
   81.5774994         1.57159240E-18
   81.7200012         1.56958152E-18
   81.8625031         1.56633670E-18
   82.0049973         1.56219138E-18
   82.1474991         1.55765358E-18
   82.2900009         1.55330798E-18
   82.4325027         1.54970003E-18
   82.5749969         1.54723751E-18
   82.7174988         1.54612692E-18
   82.8600006         1.54635387E-18
   83.0025024         1.54769732E-18
   83.1449966         1.54978057E-18
   83.2874985         1.55213918E-18
   83.4300003         1.55430339E-18
   83.5725021         1.55587979E-18
   83.7149963         1.55662715E-18
   83.8574982         1.55650493E-18
   84.0000000         1.55568282E-18
   84.1425018         1.55450346E-18
   84.2850037         1.55340580E-18
   84.4274979         1.55281808E-18
   84.5699997         1.55305580E-18
   84.7125015         1.55424931E-18
   84.8550034         1.55631592E-18
   84.9974976         1.55898389E-18
   85.1399994         1.56185307E-18
   85.2825012         1.56447957E-18