  -30.0000000         9.84044911E-18
  -29.8575001         9.85751136E-18
  -29.7150002         9.88334669E-18
  -29.5725002         9.90642503E-18
  -29.4300003         9.91863835E-18
  -29.2875004         9.91982867E-18
  -29.1450005         9.91749519E-18
  -29.0025005         9.92190241E-18
  -28.8600006         9.93955858E-18
  -28.7175007         9.96902606E-18
  -28.5750008         1.00015789E-17
  -28.4325008         1.00263141E-17
  -28.2900009         1.00366365E-17
  -28.1474991         1.00342054E-17
  -28.0049992         1.00279643E-17
  -27.8624992         1.00288403E-17
  -27.7199993         1.00432821E-17
  -27.5774994         1.00695062E-17
  -27.4349995         1.00986866E-17
  -27.2924995         1.01203372E-17
  -27.1499996         1.01286306E-17
  -27.0074997         1.01258512E-17
  -26.8649998         1.01209279E-17
  -26.7224998         1.01239677E-17
  -26.5799999         1.01401093E-17
  -26.4375000         1.01664187E-17
  -26.2950001         1.01936908E-17
  -26.1525002         1.02120459E-17
  -26.0100002         1.02169213E-17
  -25.8675003         1.02118416E-17
  -25.7250004         1.02062755E-17
  -25.5825005         1.02099110E-17
  -25.4400005         1.02267937E-17
  -25.2975006         1.02528938E-17
  -25.1550007         1.02785579E-17
  -25.0125008         1.02943454E-17
  -24.8700008         1.02967335E-17
  -24.7275009         1.02902170E-17
  -24.5849991         1.02845624E-17
  -24.4424992         1.02888753E-17
  -24.2999992         1.03060955E-17
  -24.1574993         1.03312484E-17
  -24.0149994         1.03545195E-17
  -23.8724995         1.03672705E-17
  -23.7299995         1.03673408E-17
  -23.5874996         1.03604033E-17
  -23.4449997         1.03565420E-17
  -23.3024998         1.03641016E-17
  -23.1599998         1.03845594E-17
  -23.0174999         1.04115189E-17
  -22.8750000         1.04344831E-17
  -22.7325001         1.04451231E-17
  -22.5900002         1.04422817E-17
  -22.4475002         1.04326715E-17
  -22.3050003         1.04268374E-17
  -22.1625004         1.04328105E-17
  -22.0200005         1.04512806E-17
  -21.8775005         1.04752126E-17
  -21.7350006         1.04941435E-17
  -21.5925007         1.05005574E-17
  -21.4500008         1.04944983E-17
  -21.3075008         1.04835886E-17
  -21.1650009         1.04784403E-17
  -21.0224991         1.04862009E-17
  -20.8799992         1.05061343E-17
  -20.7374992         1.05299290E-17
  -20.5949993         1.05465801E-17
  -20.4524994         1.05489442E-17
  -20.3099995         1.05380279E-17
  -20.1674995         1.05224455E-17
  -20.0249996         1.05133456E-17
  -19.8824997         1.05178538E-17
  -19.7399998         1.05349508E-17
  -19.5974998         1.05562482E-17
  -19.4549999         1.05711829E-17
  -19.3125000         1.05734883E-17
  -19.1700001         1.05650345E-17
  -19.0275002         1.05547129E-17
  -18.8850002         1.05530412E-17
  -18.7425003         1.05657095E-17
  -18.6000004         1.05899831E-17
  -18.4575005         1.06161162E-17
  -18.3150005         1.06329684E-17
  -18.1725006         1.06344606E-17
  -18.0300007         1.06230405E-17
  -17.8875008         1.06080859E-17
  -17.7450008         1.06002484E-17
  -17.6025009         1.06051304E-17
  -17.4599991         1.06200941E-17
  -17.3174992         1.06360852E-17
  -17.1749992         1.06433346E-17
  -17.0324993         1.06374724E-17
  -16.8899994         1.06223515E-17
  -16.7474995         1.06078750E-17
  -16.6049995         1.06041411E-17
  -16.4624996         1.06154305E-17
  -16.3199997         1.06376535E-17
  -16.1774998         1.06607947E-17
  -16.0349998         1.06748576E-17
  -15.8924999         1.06757477E-17
  -15.7500000         1.06675578E-17
  -15.6075001         1.06599129E-17
  -15.4650002         1.06620173E-17
  -15.3225002         1.06770157E-17
  -15.1800003         1.07000651E-17
  -15.0375004         1.07212765E-17
  -14.8950005         1.07317164E-17
  -14.7524996         1.07288097E-17
  -14.6099997         1.07178884E-17
  -14.4674997         1.07089366E-17
  -14.3249998         1.07105223E-17
  -14.1824999         1.07245993E-17
  -14.0400000         1.07453293E-17
  -13.8975000         1.07626364E-17
  -13.7550001         1.07683447E-17
  -13.6125002         1.07611665E-17
  -13.4700003         1.07475304E-17
  -13.3275003         1.07377399E-17
  -13.1850004         1.07397756E-17
  -13.0424995         1.07545217E-17
  -12.8999996         1.07752707E-17
  -12.7574997         1.07918392E-17
  -12.6149998         1.07967658E-17
  -12.4724998         1.07898448E-17
  -12.3299999         1.07782436E-17
  -12.1875000         1.07721051E-17
  -12.0450001         1.07783247E-17
  -11.9025002         1.07962654E-17
  -11.7600002         1.08180409E-17
  -11.6175003         1.08332222E-17
  -11.4750004         1.08351363E-17
  -11.3325005         1.08249611E-17
  -11.1899996         1.08111108E-17
  -11.0474997         1.08042642E-17
  -10.9049997         1.08110099E-17
  -10.7624998         1.08299275E-17
  -10.6199999         1.08524831E-17
  -10.4775000         1.08681854E-17
  -10.3350000         1.08709185E-17
  -10.1925001         1.08626152E-17
  -10.0500002         1.08520529E-17
  -9.90750027         1.08494903E-17
  -9.76500034         1.08603760E-17
  -9.62250042         1.08819332E-17
  -9.47999954         1.09047220E-17
  -9.33749962         1.09182324E-17
  -9.19499969         1.09172025E-17
  -9.05249977         1.09048279E-17
  -8.90999985         1.08909371E-17
  -8.76749992         1.08862097E-17
  -8.62500000         1.08958679E-17
  -8.48250008         1.09166367E-17
  -8.34000015         1.09387713E-17
  -8.19750023         1.09519193E-17
  -8.05500031         1.09513063E-17
  -7.91249990         1.09405257E-17
  -7.76999998         1.09292636E-17
  -7.62750006         1.09273686E-17
  -7.48500013         1.09388159E-17
  -7.34250021         1.09592465E-17
  -7.19999981         1.09785330E-17
  -7.05749989         1.09868644E-17
  -6.91499996         1.09806704E-17
  -6.77250004         1.09648465E-17
  -6.63000011         1.09499233E-17
  -6.48750019         1.09459049E-17
  -6.34499979         1.09564390E-17
  -6.20249987         1.09768133E-17
  -6.05999994         1.09969419E-17
  -5.91750002         1.10075033E-17
  -5.77500010         1.10055330E-17
  -5.63250017         1.09961048E-17
  -5.48999977         1.09891118E-17
  -5.34749985         1.09931476E-17
  -5.20499992         1.10101710E-17
  -5.06250000         1.10342180E-17
  -4.92000008         1.10549140E-17
  -4.77750015         1.10636689E-17
  -4.63500023         1.10588059E-17
  -4.49249983         1.10465446E-17
  -4.34999990         1.10372413E-17
  -4.20749998         1.10391736E-17
  -4.06500006         1.10536245E-17
  -3.92249990         1.10742121E-17
  -3.77999997         1.10908468E-17
  -3.63750005         1.10958967E-17
  -3.49499989         1.10888226E-17
  -3.35249996         1.10764778E-17
  -3.21000004         1.10689017E-17
  -3.06750011         1.10731856E-17
  -2.92499995         1.10891304E-17
  -2.78250003         1.11093500E-17
  -2.64000010         1.11237553E-17
  -2.49749994         1.11256942E-17
  -2.35500002         1.11160385E-17
  -2.21250010         1.11027019E-17
  -2.06999993         1.10958950E-17
  -1.92750001         1.11019665E-17
  -1.78499997         1.11195640E-17
  -1.64250004         1.11404478E-17
  -1.50000000         1.11544702E-17
  -1.35749996         1.11557002E-17
  -1.21500003         1.11460089E-17
  -1.07249999         1.11339106E-17
 -0.930000007         1.11293768E-17
 -0.787500024         1.11377479E-17
 -0.644999981         1.11564471E-17
 -0.502499998         1.11765005E-17
 -0.360000014         1.11879569E-17
 -0.217500001         1.11859518E-17
  -7.50000030E-02     1.11737336E-17
   6.75000027E-02     1.11607973E-17
  0.209999993         1.11572214E-17
  0.352499992         1.11676182E-17
  0.495000005         1.11883225E-17
  0.637499988         1.12095472E-17
  0.779999971         1.12212187E-17
  0.922500014         1.12189853E-17
   1.06500006         1.12068051E-17
   1.20749998         1.11945281E-17
   1.35000002         1.11919464E-17
   1.49249995         1.12028817E-17
   1.63499999         1.12228764E-17
   1.77750003         1.12418924E-17
   1.91999996         1.12503925E-17
   2.06250000         1.12451515E-17
   2.20499992         1.12312896E-17
   2.34750009         1.12192864E-17
   2.49000001         1.12187562E-17
   2.63249993         1.12327066E-17
   2.77500010         1.12557262E-17
   2.91750002         1.12771783E-17
   3.05999994         1.12874998E-17
   3.20250010         1.12838164E-17
   3.34500003         1.12715319E-17
   3.48749995         1.12609622E-17
   3.63000011         1.12610458E-17
   3.77250004         1.12739407E-17
   3.91499996         1.12937442E-17
   4.05749989         1.13100951E-17
   4.19999981         1.13144742E-17
   4.34250021         1.13054091E-17
   4.48500013         1.12894338E-17
   4.62750006         1.12772436E-17
   4.76999998         1.12773561E-17
   4.91249990         1.12910840E-17
   5.05499983         1.13118247E-17
   5.19750023         1.13290855E-17
   5.34000015         1.13347807E-17
   5.48250008         1.13280259E-17
   5.62500000         1.13155520E-17
   5.76749992         1.13075317E-17
   5.90999985         1.13113590E-17
   6.05249977         1.13271615E-17
   6.19500017         1.13477442E-17
   6.33750010         1.13629859E-17
   6.48000002         1.13659985E-17
   6.62249994         1.13573263E-17
   6.76499987         1.13446340E-17
   6.90749979         1.13380886E-17
   7.05000019         1.13442238E-17
   7.19250011         1.13620131E-17
   7.33500004         1.13835074E-17
   7.47749996         1.13986522E-17
   7.61999989         1.14013505E-17
   7.76249981         1.13931118E-17
   7.90500021         1.13820764E-17
   8.04749966         1.13780207E-17
   8.18999958         1.13863926E-17
   8.33250046         1.14049835E-17
   8.47500038         1.14252676E-17
   8.61750031         1.14375868E-17
   8.76000023         1.14370318E-17
   8.90250015         1.14264430E-17
   9.04500008         1.14146904E-17
   9.18750000         1.14112734E-17
   9.32999992         1.14205014E-17
   9.47249985         1.14387961E-17
   9.61499977         1.14567724E-17
   9.75749969         1.14648598E-17
   9.89999962         1.14590786E-17
   10.0424995         1.14434805E-17
   10.1850004         1.14277690E-17
   10.3275003         1.14215254E-17
   10.4700003         1.14285118E-17
   10.6125002         1.14445037E-17
   10.7550001         1.14599579E-17
   10.8975000         1.14659062E-17
   11.0400000         1.14595071E-17
   11.1824999         1.14458909E-17
   11.3249998         1.14351441E-17
   11.4674997         1.14362377E-17
   11.6099997         1.14515562E-17
   11.7524996         1.14753294E-17
   11.8950005         1.14969453E-17
   12.0375004         1.15071825E-17
   12.1800003         1.15036272E-17
   12.3225002         1.14920368E-17
   12.4650002         1.14828179E-17
   12.6075001         1.14847452E-17
   12.7500000         1.14996857E-17
   12.8924999         1.15214927E-17
   13.0349998         1.15397320E-17
   13.1774998         1.15459987E-17
   13.3199997         1.15390033E-17
   13.4624996         1.15253780E-17
   13.6049995         1.15156999E-17
   13.7475004         1.15181335E-17
   13.8900003         1.15334885E-17
   14.0325003         1.15546924E-17
   14.1750002         1.15709755E-17
   14.3175001         1.15742776E-17
   14.4600000         1.15640271E-17
   14.6025000         1.15474529E-17
   14.7449999         1.15352487E-17
   14.8874998         1.15352115E-17
   15.0299997         1.15476746E-17
   15.1724997         1.15654524E-17
   15.3149996         1.15783026E-17
   15.4575005         1.15791927E-17
   15.6000004         1.15685824E-17
   15.7425003         1.15541531E-17
   15.8850002         1.15461634E-17
   16.0275002         1.15512439E-17
   16.1700001         1.15683814E-17
   16.3125000         1.15895002E-17
   16.4549999         1.16042827E-17
   16.5974998         1.16063168E-17
   16.7399998         1.15968621E-17
   16.8824997         1.15839953E-17
   17.0249996         1.15776640E-17
   17.1674995         1.15836652E-17
   17.3099995         1.16001741E-17
   17.4524994         1.16189147E-17
   17.5949993         1.16302272E-17
   17.7374992         1.16289484E-17
   17.8799992         1.16175457E-17
   18.0224991         1.16046086E-17
   18.1650009         1.15996265E-17
   18.3075008         1.16072349E-17
   18.4500008         1.16244122E-17
   18.5925007         1.16423363E-17
   18.7350006         1.16517604E-17
   18.8775005         1.16486510E-17
   19.0200005         1.16366627E-17
   19.1625004         1.16249457E-17
   19.3050003         1.16226130E-17
   19.4475002         1.16332183E-17
   19.5900002         1.16525950E-17
   19.7325001         1.16713588E-17
   19.8750000         1.16805769E-17
   20.0174999         1.16771466E-17
   20.1599998         1.16656479E-17
   20.3024998         1.16555191E-17
   20.4449997         1.16552834E-17
   20.5874996         1.16673164E-17
   20.7299995         1.16863465E-17
   20.8724995         1.17026072E-17
   21.0149994         1.17077647E-17
   21.1574993         1.17000214E-17
   21.2999992         1.16853075E-17
   21.4424992         1.16738147E-17
   21.5849991         1.16739255E-17
   21.7275009         1.16872092E-17
   21.8700008         1.17074851E-17
   22.0125008         1.17245366E-17
   22.1550007         1.17302483E-17
   22.2975006         1.17234687E-17
   22.4400005         1.17106598E-17
   22.5825005         1.17019438E-17
   22.7250004         1.17049167E-17
   22.8675003         1.17199681E-17
   23.0100002         1.17399362E-17
   23.1525002         1.17543382E-17
   23.2950001         1.17556369E-17
   23.4375000         1.17437933E-17
   23.5799999         1.17263572E-17
   23.7224998         1.17140306E-17
   23.8649998         1.17143523E-17
   24.0074997         1.17272886E-17
   24.1499996         1.17453542E-17
   24.2924995         1.17581921E-17
   24.4349995         1.17588431E-17
   24.5774994         1.17479425E-17
   24.7199993         1.17333303E-17
   24.8624992         1.17253125E-17
   25.0049992         1.17304369E-17
   25.1474991         1.17475206E-17
   25.2900009         1.17683333E-17
   25.4325008         1.17825013E-17
   25.5750008         1.17836949E-17
   25.7175007         1.17734006E-17
   25.8600006         1.17599871E-17
   26.0025005         1.17536848E-17
   26.1450005         1.17604668E-17
   26.2875004         1.17785184E-17
   26.4300003         1.17993898E-17
   26.5725002         1.18131086E-17
   26.7150002         1.18141566E-17
   26.8575001         1.18047193E-17
   27.0000000         1.17932637E-17
   27.1424999         1.17893346E-17
   27.2849998         1.17977363E-17
   27.4274998         1.18156034E-17
   27.5699997         1.18341297E-17
   27.7124996         1.18438905E-17
   27.8549995         1.18405238E-17
   27.9974995         1.18273675E-17
   28.1399994         1.18134403E-17
   28.2824993         1.18080239E-17
   28.4249992         1.18151178E-17
   28.5674992         1.18311114E-17
   28.7099991         1.18470677E-17
   28.8525009         1.18542054E-17
   28.9950008         1.18492523E-17
   29.1375008         1.18364334E-17
   29.2800007         1.18248901E-17
   29.4225006         1.18231117E-17
   29.5650005         1.18337707E-17
   29.7075005         1.18520895E-17
   29.8500004         1.18687307E-17
   29.9925003         1.18754607E-17
   30.1350002         1.18701411E-17
   30.2775002         1.18580220E-17
   30.4200001         1.18485425E-17
   30.5625000         1.18495765E-17
   30.7049999         1.18626038E-17
   30.8474998         1.18817563E-17
   30.9899998         1.18973048E-17
   31.1324997         1.19015086E-17
   31.2749996         1.18932814E-17
   31.4174995         1.18788446E-17
   31.5599995         1.18679714E-17
   31.7024994         1.18680847E-17
   31.8449993         1.18797703E-17
   31.9874992         1.18964388E-17
   32.1300011         1.19083444E-17
   32.2724991         1.19085338E-17
   32.4150009         1.18971320E-17
   32.5574989         1.18813485E-17
   32.7000008         1.18711783E-17
   32.8424988         1.18733704E-17
   32.9850006         1.18873034E-17
   33.1274986         1.19052648E-17
   33.2700005         1.19169926E-17
   33.4124985         1.19157816E-17
   33.5550003         1.19024648E-17
   33.6974983         1.18849128E-17
   33.8400002         1.18733240E-17
   33.9824982         1.18741430E-17
   34.1250000         1.18862661E-17
   34.2675018         1.19018022E-17
   34.4099998         1.19109434E-17
   34.5525017         1.19079953E-17
   34.6949997         1.18949441E-17
   34.8375015         1.18803873E-17
   34.9799995         1.18744722E-17
   35.1225014         1.18828515E-17
   35.2649994         1.19033002E-17
   35.4075012         1.19270097E-17
   35.5499992         1.19437924E-17
   35.6925011         1.19480780E-17
   35.8349991         1.19421223E-17
   35.9775009         1.19345172E-17
   36.1199989         1.19349184E-17
   36.2625008         1.19481682E-17
   36.4049988         1.19713449E-17
   36.5475006         1.19954879E-17
   36.6899986         1.20109520E-17
   36.8325005         1.20131490E-17
   36.9749985         1.20052354E-17
   37.1175003         1.19961273E-17
   37.2599983         1.19950652E-17
   37.4025002         1.20060055E-17
   37.5449982         1.20252192E-17
   37.6875000         1.20435140E-17
   37.8300018         1.20517436E-17
   37.9724998         1.20462759E-17
   38.1150017         1.20311369E-17
   38.2574997         1.20155536E-17
   38.4000015         1.20084150E-17
   38.5424995         1.20129852E-17
   38.6850014         1.20250645E-17
   38.8274994         1.20356591E-17
   38.9700012         1.20365516E-17
   39.1124992         1.20253532E-17
   39.2550011         1.20070047E-17
   39.3974991         1.19908259E-17
   39.5400009         1.19849033E-17
   39.6824989         1.19912378E-17
   39.8250008         1.20045786E-17
   39.9674988         1.20156429E-17
   40.1100006         1.20167754E-17
   40.2524986         1.20065952E-17
   40.3950005         1.19908383E-17
   40.5374985         1.19788698E-17
   40.6800003         1.19779947E-17
   40.8224983         1.19890110E-17
   40.9650002         1.20056994E-17
   41.1074982         1.20185654E-17
   41.2500000         1.20205696E-17
   41.3925018         1.20113664E-17
   41.5349998         1.19974905E-17
   41.6775017         1.19883766E-17
   41.8199997         1.19906224E-17
   41.9625015         1.20039747E-17
   42.1049995         1.20214862E-17
   42.2475014         1.20337483E-17
   42.3899994         1.20346582E-17
   42.5325012         1.20252018E-17
   42.6749992         1.20129612E-17
   42.8175011         1.20076011E-17
   42.9599991         1.20150532E-17
   43.1025009         1.20338906E-17
   43.2449989         1.20561061E-17
   43.3875008         1.20718383E-17
   43.5299988         1.20752082E-17
   43.6725006         1.20677661E-17
   43.8149986         1.20574635E-17
   43.9575005         1.20537743E-17
   44.0999985         1.20618948E-17
   44.2425003         1.20795385E-17
   44.3849983         1.20982601E-17
   44.5275002         1.21085328E-17
   44.6699982         1.21055269E-17
   44.8125000         1.20921042E-17
   44.9550018         1.20772166E-17
   45.0974998         1.20706339E-17
   45.2400017         1.20771653E-17
   45.3824997         1.20938297E-17
   45.5250015         1.21116687E-17
   45.6674995         1.21211184E-17
   45.8100014         1.21177228E-17
   45.9524994         1.21047584E-17
   46.0950012         1.20912158E-17
   46.2374992         1.20863495E-17
   46.3800011         1.20940779E-17
   46.5224991         1.21106116E-17
   46.6650009         1.21267143E-17
   46.8074989         1.21332507E-17
   46.9500008         1.21266729E-17
   47.0924988         1.21111724E-17
   47.2350006         1.20961855E-17
   47.3774986         1.20907857E-17
   47.5200005         1.20983039E-17
   47.6624985         1.21144149E-17
   47.8050003         1.21298096E-17
   47.9474983         1.21358290E-17
   48.0900002         1.21296640E-17
   48.2324982         1.21160089E-17
   48.3750000         1.21041852E-17
   48.5175018         1.21024994E-17
   48.6599998         1.21132403E-17
   48.8025017         1.21313275E-17
   48.9449997         1.21473988E-17
   49.0875015         1.21534711E-17
   49.2299995         1.21477321E-17
   49.3725014         1.21355941E-17
   49.5149994         1.21263768E-17
   49.6575012         1.21276415E-17
   49.7999992         1.21406093E-17
   49.9425011         1.21594152E-17
   50.0849991         1.21746444E-17
   50.2275009         1.21789971E-17
   50.3699989         1.21716558E-17
   50.5125008         1.21587245E-17
   50.6549988         1.21494857E-17
   50.7975006         1.21507612E-17
   50.9399986         1.21627918E-17
   51.0825005         1.21791294E-17
   51.2249985         1.21905941E-17
   51.3675003         1.21908878E-17
   51.5099983         1.21804521E-17
   51.6525002         1.21662229E-17
   51.7949982         1.21574201E-17
   51.9375000         1.21599339E-17
   52.0800018         1.21727097E-17
   52.2224998         1.21883260E-17
   52.3650017         1.21974481E-17
   52.5074997         1.21944587E-17
   52.6500015         1.21808657E-17
   52.7924995         1.21644238E-17
   52.9350014         1.21544960E-17
   53.0774994         1.21564407E-17
   53.2200012         1.21684364E-17
   53.3624992         1.21826565E-17
   53.5050011         1.21900887E-17
   53.6474991         1.21860926E-17
   53.7900009         1.21733052E-17
   53.9324989         1.21601266E-17
   54.0750008         1.21556706E-17
   54.2174988         1.21642195E-17
   54.3600006         1.21825316E-17
   54.5024986         1.22016568E-17
   54.6450005         1.22121926E-17
   54.7874985         1.22098410E-17
   54.9300003         1.21979271E-17
   55.0724983         1.21853746E-17
   55.2150002         1.21813297E-17
   55.3574982         1.21896784E-17
   55.5000000         1.22067473E-17
   55.6425018         1.22235697E-17
   55.7849998         1.22313543E-17
   55.9275017         1.22268668E-17
   56.0699997         1.22144583E-17
   56.2125015         1.22035172E-17
   56.3549995         1.22028571E-17
   56.4975014         1.22153963E-17
   56.6399994         1.22363372E-17
   56.7825012         1.22559422E-17
   56.9249992         1.22652596E-17
   57.0675011         1.22613751E-17
   57.2099991         1.22490559E-17
   57.3525009         1.22378170E-17
   57.4949989         1.22361751E-17
   57.6375008         1.22465521E-17
   57.7799988         1.22638650E-17
   57.9225006         1.22786425E-17
   58.0649986         1.22827602E-17
   58.2075005         1.22743520E-17
   58.3499985         1.22589308E-17
   58.4925003         1.22460657E-17
   58.6349983         1.22436222E-17
   58.7775002         1.22530372E-17
   58.9199982         1.22684740E-17
   59.0625000         1.22803623E-17
   59.2050018         1.22811754E-17
   59.3474998         1.22699861E-17
   59.4900017         1.22530487E-17
   59.6324997         1.22400918E-17
   59.7750015         1.22385425E-17
   59.9174995         1.22491775E-17
   60.0600014         1.22657757E-17
   60.2024994         1.22789618E-17
   60.3450012         1.22818892E-17
   60.4874992         1.22743230E-17
   60.6300011         1.22626556E-17
   60.7724991         1.22558934E-17
   60.9150009         1.22600525E-17
   61.0574989         1.22743842E-17
   61.2000008         1.22917360E-17
   61.3424988         1.23028235E-17
   61.4850006         1.23018417E-17
   61.6274986         1.22900088E-17
   61.7700005         1.22749086E-17
   61.9124985         1.22659999E-17
   62.0550003         1.22690241E-17
   62.1974983         1.22826602E-17
   62.3400002         1.22994428E-17
   62.4824982         1.23103641E-17
   62.6250000         1.23103525E-17
   62.7675018         1.23013123E-17
   62.9099998         1.22908650E-17
   63.0525017         1.22875852E-17
   63.1949997         1.22956163E-17
   63.3375015         1.23119738E-17
   63.4799995         1.23281940E-17
   63.6225014         1.23353673E-17
   63.7649994         1.23295150E-17
   63.9075012         1.23140682E-17
   64.0500031         1.22979142E-17
   64.1924973         1.22901635E-17
   64.3349991         1.22947800E-17
   64.4775009         1.23082945E-17
   64.6200027         1.23219885E-17
   64.7624969         1.23272295E-17
   64.9049988         1.23207220E-17
   65.0475006         1.23065285E-17
   65.1900024         1.22936029E-17
   65.3324966         1.22903356E-17
   65.4749985         1.22994081E-17
   65.6175003         1.23160807E-17
   65.7600021         1.23309774E-17
   65.9024963         1.23357106E-17
   66.0449982         1.23279781E-17
   66.1875000         1.23130458E-17
   66.3300018         1.23006977E-17
   66.4725037         1.22994701E-17
   66.6149979         1.23115974E-17
   66.7574997         1.23317087E-17
   66.9000015         1.23500539E-17
   67.0425034         1.23583116E-17
   67.1849976         1.23545173E-17
   67.3274994         1.23441404E-17
   67.4700012         1.23366825E-17
   67.6125031         1.23398564E-17
   67.7549973         1.23548466E-17
   67.8974991         1.23755145E-17
   68.0400009         1.23920308E-17
   68.1825027         1.23967466E-17
   68.3249969         1.23887800E-17
   68.4674988         1.23745599E-17
   68.6100006         1.23639811E-17
   68.7525024         1.23644989E-17
   68.8949966         1.23766783E-17
   69.0374985         1.23938762E-17
   69.1800003         1.24062211E-17
   69.3225021         1.24065106E-17
   69.4649963         1.23944710E-17
   69.6074982         1.23768595E-17
   69.7500000         1.23633657E-17
   69.8925018         1.23608122E-17
   70.0350037         1.23691560E-17
   70.1774979         1.23816745E-17
   70.3199997         1.23892126E-17
   70.4625015         1.23858865E-17
   70.6050034         1.23727889E-17
   70.7474976         1.23574414E-17
   70.8899994         1.23493276E-17
   71.0325012         1.23541980E-17
   71.1750031         1.23705762E-17
   71.3174973         1.23905766E-17
   71.4599991         1.24045212E-17
   71.6025009         1.24065884E-17
   71.7450027         1.23980916E-17
   71.8874969         1.23864457E-17
   72.0299988         1.23804850E-17
   72.1725006         1.23850031E-17
   72.3150024         1.23978285E-17
   72.4574966         1.24112115E-17
   72.5999985         1.24166551E-17
   72.7425003         1.24102462E-17
   72.8850021         1.23952130E-17
   73.0274963         1.23801450E-17
   73.1699982         1.23739122E-17
   73.3125000         1.23803502E-17
   73.4550018         1.23959326E-17
   73.5975037         1.24118335E-17
   73.7399979         1.24191582E-17
   73.8824997         1.24141868E-17
   74.0250015         1.24004780E-17
   74.1675034         1.23865756E-17
   74.3099976         1.23807183E-17
   74.4524994         1.23857856E-17
   74.5950012         1.23975390E-17
   74.7375031         1.24072518E-17
   74.8799973         1.24071260E-17
   75.0224991         1.23952121E-17
   75.1650009         1.23768099E-17
   75.3075027         1.23614748E-17
   75.4499969         1.23573901E-17
   75.5924988         1.23664825E-17
   75.7350006         1.23832461E-17
   75.8775024         1.23979873E-17
   76.0199966         1.24025832E-17
   76.1624985         1.23952808E-17
   76.3050003         1.23816811E-17
   76.4475021         1.23712975E-17
   76.5899963         1.23717756E-17
   76.7324982         1.23842570E-17
   76.8750000         1.24026857E-17
   77.0175018         1.24174757E-17
   77.1600037         1.24213395E-17
   77.3024979         1.24137435E-17
   77.4449997         1.24012969E-17
   77.5875015         1.23938018E-17
   77.7300034         1.23983348E-17
   77.8724976         1.24149040E-17
   78.0149994         1.24363065E-17
   78.1575012         1.24522893E-17
   78.3000031         1.24555401E-17
   78.4424973         1.24459299E-17
   78.5849991         1.24304889E-17
   78.7275009         1.24191375E-17
   78.8700027         1.24187595E-17
   79.0124969         1.24291547E-17
   79.1549988         1.24433086E-17
   79.2975006         1.24517706E-17
   79.4400024         1.24484908E-17
   79.5824966         1.24345810E-17
   79.7249985         1.24177297E-17
   79.8675003         1.24076116E-17
   80.0100021         1.24100782E-17
   80.1524963         1.24236010E-17
   80.2949982         1.24401338E-17
   80.4375000         1.24498664E-17
   80.5800018         1.24470176E-17
   80.7225037         1.24332178E-17
   80.8649979         1.24164475E-17
   81.0074997         1.24062261E-17
   81.1500015         1.24079367E-17
   81.2925034         1.24197141E-17
   81.4349976         1.24337298E-17
   81.5774994         1.24410611E-17
   81.7200012         1.24371676E-17
   81.8625031         1.24246424E-17
   82.0049973         1.24115911E-17
   82.1474991         1.24066272E-17
   82.2900009         1.24135259E-17
   82.4325027         1.24288106E-17
   82.5749969         1.24437246E-17
   82.7174988         1.24494247E-17
   82.8600006         1.24422696E-17
   83.0025024         1.24259998E-17
   83.1449966         1.24095232E-17
   83.2874985         1.24016327E-17
   83.4300003         1.24058580E-17
   83.5725021         1.24185362E-17
   83.7149963         1.24312441E-17
   83.8574982         1.24360864E-17
   84.0000000         1.24305981E-17
   84.1425018         1.24192740E-17
   84.2850037         1.24107855E-17
   84.4274979         1.24125846E-17
   84.5699997         1.24261810E-17
   84.7125015         1.24459903E-17
   84.8550034         1.24624983E-17
   84.9974976         1.24678568E-17
   85.1399994         1.24605495E-17
   85.2825012         1.24462996E-17