  -30.00000        9.8404830E-18
  -29.85750        9.8575444E-18
  -29.71500        9.8833773E-18
  -29.57250        9.9064540E-18
  -29.43000        9.9186673E-18
  -29.28750        9.9198593E-18
  -29.14500        9.9175299E-18
  -29.00250        9.9219380E-18
  -28.86000        9.9395933E-18
  -28.71750        9.9690583E-18
  -28.57500        1.0001610E-17
  -28.43250        1.0026345E-17
  -28.29000        1.0036668E-17
  -28.14750        1.0034238E-17
  -28.00500        1.0027999E-17
  -27.86250        1.0028878E-17
  -27.72000        1.0043319E-17
  -27.57750        1.0069542E-17
  -27.43500        1.0098720E-17
  -27.29250        1.0120369E-17
  -27.15000        1.0128662E-17
  -27.00750        1.0125884E-17
  -26.86500        1.0120963E-17
  -26.72250        1.0124006E-17
  -26.58000        1.0140148E-17
  -26.43750        1.0166457E-17
  -26.29500        1.0193727E-17
  -26.15250        1.0212080E-17
  -26.01000        1.0216954E-17
  -25.86750        1.0211875E-17
  -25.72500        1.0206310E-17
  -25.58250        1.0209947E-17
  -25.44000        1.0226830E-17
  -25.29750        1.0252930E-17
  -25.15500        1.0278592E-17
  -25.01250        1.0294378E-17
  -24.87000        1.0296764E-17
  -24.72750        1.0290249E-17
  -24.58500        1.0284598E-17
  -24.44250        1.0288914E-17
  -24.30000        1.0306134E-17
  -24.15750        1.0331286E-17
  -24.01500        1.0354553E-17
  -23.87250        1.0367303E-17
  -23.73000        1.0367371E-17
  -23.58750        1.0360436E-17
  -23.44500        1.0356577E-17
  -23.30250        1.0364138E-17
  -23.16000        1.0384596E-17
  -23.01750        1.0411554E-17
  -22.87500        1.0434516E-17
  -22.73250        1.0445155E-17
  -22.59000        1.0442312E-17
  -22.44750        1.0432705E-17
  -22.30500        1.0426874E-17
  -22.16250        1.0432849E-17
  -22.02000        1.0451319E-17
  -21.87750        1.0475249E-17
  -21.73500        1.0494177E-17
  -21.59250        1.0500590E-17
  -21.45000        1.0494531E-17
  -21.30750        1.0483623E-17
  -21.16500        1.0478477E-17
  -21.02250        1.0486237E-17
  -20.88000        1.0506168E-17
  -20.73750        1.0529960E-17
  -20.59500        1.0546609E-17
  -20.45250        1.0548973E-17
  -20.31000        1.0538059E-17
  -20.16750        1.0522480E-17
  -20.02500        1.0513383E-17
  -19.88250        1.0517893E-17
  -19.74000        1.0534991E-17
  -19.59750        1.0556289E-17
  -19.45500        1.0571225E-17
  -19.31250        1.0573532E-17
  -19.17000        1.0565078E-17
  -19.02750        1.0554757E-17
  -18.88500        1.0553082E-17
  -18.74250        1.0565744E-17
  -18.60000        1.0590010E-17
  -18.45750        1.0616136E-17
  -18.31500        1.0632981E-17
  -18.17250        1.0634468E-17
  -18.03000        1.0623045E-17
  -17.88750        1.0608089E-17
  -17.74500        1.0600253E-17
  -17.60250        1.0605137E-17
  -17.46000        1.0620104E-17
  -17.31750        1.0636103E-17
  -17.17500        1.0643361E-17
  -17.03250        1.0637511E-17
  -16.89000        1.0622403E-17
  -16.74750        1.0607939E-17
  -16.60500        1.0604216E-17
  -16.46250        1.0615513E-17
  -16.32000        1.0637743E-17
  -16.17750        1.0660888E-17
  -16.03500        1.0674953E-17
  -15.89250        1.0675842E-17
  -15.75000        1.0667647E-17
  -15.60750        1.0659993E-17
  -15.46500        1.0662087E-17
  -15.32250        1.0677072E-17
  -15.18000        1.0700106E-17
  -15.03750        1.0721305E-17
  -14.89500        1.0731731E-17
  -14.75250        1.0728811E-17
  -14.61000        1.0717878E-17
  -14.46750        1.0708915E-17
  -14.32500        1.0710493E-17
  -14.18250        1.0724566E-17
  -14.04000        1.0745296E-17
  -13.89750        1.0762607E-17
  -13.75500        1.0768317E-17
  -13.61250        1.0761142E-17
  -13.47000        1.0747513E-17
  -13.32750        1.0737730E-17
  -13.18500        1.0739777E-17
  -13.04250        1.0754534E-17
  -12.90000        1.0775296E-17
  -12.75750        1.0791876E-17
  -12.61500        1.0796811E-17
  -12.47250        1.0789895E-17
  -12.33000        1.0778299E-17
  -12.18750        1.0772165E-17
  -12.04500        1.0778389E-17
  -11.90250        1.0796334E-17
  -11.76000        1.0818112E-17
  -11.61750        1.0833291E-17
  -11.47500        1.0835201E-17
  -11.33250        1.0825019E-17
  -11.19000        1.0811161E-17
  -11.04750        1.0804310E-17
  -10.90500        1.0811051E-17
  -10.76250        1.0829966E-17
  -10.62000        1.0852516E-17
  -10.47750        1.0868210E-17
  -10.33500        1.0870934E-17
  -10.19250        1.0862622E-17
  -10.05000        1.0852052E-17
  -9.907500        1.0849485E-17
  -9.765000        1.0860367E-17
  -9.622500        1.0881926E-17
  -9.480000        1.0904716E-17
  -9.337500        1.0918232E-17
  -9.195000        1.0917207E-17
  -9.052500        1.0904839E-17
  -8.910000        1.0890957E-17
  -8.767500        1.0886239E-17
  -8.625000        1.0895908E-17
  -8.482500        1.0916688E-17
  -8.340000        1.0938833E-17
  -8.197500        1.0951990E-17
  -8.055000        1.0951384E-17
  -7.912500        1.0940607E-17
  -7.770000        1.0929350E-17
  -7.627500        1.0927458E-17
  -7.485000        1.0938910E-17
  -7.342500        1.0959346E-17
  -7.200000        1.0978640E-17
  -7.057500        1.0986979E-17
  -6.915000        1.0980794E-17
  -6.772500        1.0964979E-17
  -6.630000        1.0950066E-17
  -6.487500        1.0946058E-17
  -6.345000        1.0956600E-17
  -6.202500        1.0976983E-17
  -6.060000        1.0997116E-17
  -5.917500        1.1007680E-17
  -5.775000        1.1005709E-17
  -5.632500        1.0996277E-17
  -5.490000        1.0989277E-17
  -5.347500        1.0993301E-17
  -5.205000        1.1010310E-17
  -5.062500        1.1034340E-17
  -4.920000        1.1055018E-17
  -4.777500        1.1063757E-17
  -4.635000        1.1058881E-17
  -4.492500        1.1046612E-17
  -4.350000        1.1037306E-17
  -4.207500        1.1039238E-17
  -4.065000        1.1053692E-17
  -3.922500        1.1074285E-17
  -3.780000        1.1090927E-17
  -3.637500        1.1095989E-17
  -3.495000        1.1088934E-17
  -3.352500        1.1076613E-17
  -3.210000        1.1069067E-17
  -3.067500        1.1073380E-17
  -2.925000        1.1089351E-17
  -2.782500        1.1109595E-17
  -2.640000        1.1124022E-17
  -2.497500        1.1125985E-17
  -2.355000        1.1116355E-17
  -2.212500        1.1103048E-17
  -2.070000        1.1096275E-17
  -1.927500        1.1102378E-17
  -1.785000        1.1120007E-17
  -1.642500        1.1140921E-17
  -1.500000        1.1154973E-17
  -1.357500        1.1156240E-17
  -1.215000        1.1146591E-17
  -1.072500        1.1134544E-17
 -0.9300000        1.1130064E-17
 -0.7875000        1.1138491E-17
 -0.6450000        1.1157245E-17
 -0.5025000        1.1177349E-17
 -0.3600000        1.1188855E-17
 -0.2175000        1.1186903E-17
 -7.5000003E-02    1.1174739E-17
  6.7500003E-02    1.1161858E-17
  0.2100000        1.1158336E-17
  0.3525000        1.1168784E-17
  0.4950000        1.1189533E-17
  0.6375000        1.1210800E-17
  0.7800000        1.1222511E-17
  0.9225000        1.1220320E-17
   1.065000        1.1208183E-17
   1.207500        1.1195952E-17
   1.350000        1.1193415E-17
   1.492500        1.1204395E-17
   1.635000        1.1224432E-17
   1.777500        1.1243493E-17
   1.920000        1.1252041E-17
   2.062500        1.1246852E-17
   2.205000        1.1233046E-17
   2.347500        1.1221100E-17
   2.490000        1.1220626E-17
   2.632500        1.1234634E-17
   2.775000        1.1257714E-17
   2.917500        1.1279230E-17
   3.060000        1.1289619E-17
   3.202500        1.1286007E-17
   3.345000        1.1273798E-17
   3.487500        1.1263302E-17
   3.630000        1.1263458E-17
   3.772500        1.1276425E-17
   3.915000        1.1296299E-17
   4.057500        1.1312721E-17
   4.200000        1.1317176E-17
   4.342500        1.1308185E-17
   4.485000        1.1292279E-17
   4.627500        1.1280149E-17
   4.770000        1.1280309E-17
   4.912500        1.1294072E-17
   5.055000        1.1314838E-17
   5.197500        1.1332117E-17
   5.340000        1.1337826E-17
   5.482500        1.1331081E-17
   5.625000        1.1318611E-17
   5.767500        1.1310589E-17
   5.910000        1.1314407E-17
   6.052500        1.1330199E-17
   6.195000        1.1350775E-17
   6.337500        1.1366021E-17
   6.480000        1.1369049E-17
   6.622500        1.1360404E-17
   6.765000        1.1347749E-17
   6.907500        1.1341248E-17
   7.050000        1.1347431E-17
   7.192500        1.1365271E-17
   7.335000        1.1386823E-17
   7.477500        1.1402036E-17
   7.620000        1.1404817E-17
   7.762500        1.1396674E-17
   7.905000        1.1385742E-17
   8.047500        1.1381795E-17
   8.190000        1.1390275E-17
   8.332500        1.1408970E-17
   8.475000        1.1429358E-17
   8.617500        1.1441781E-17
   8.760000        1.1441334E-17
   8.902500        1.1430853E-17
   9.045000        1.1419201E-17
   9.187500        1.1415872E-17
   9.330000        1.1425169E-17
   9.472500        1.1443516E-17
   9.615000        1.1461531E-17
   9.757500        1.1469648E-17
   9.900000        1.1463892E-17
   10.04250        1.1448313E-17
   10.18500        1.1432614E-17
   10.32750        1.1426371E-17
   10.47000        1.1433346E-17
   10.61250        1.1449315E-17
   10.75500        1.1464744E-17
   10.89750        1.1470667E-17
   11.04000        1.1464253E-17
   11.18250        1.1450629E-17
   11.32500        1.1439881E-17
   11.46750        1.1440978E-17
   11.61000        1.1456308E-17
   11.75250        1.1480100E-17
   11.89500        1.1501749E-17
   12.03750        1.1512034E-17
   12.18000        1.1508542E-17
   12.32250        1.1497022E-17
   12.46500        1.1487879E-17
   12.60750        1.1489880E-17
   12.75000        1.1504890E-17
   12.89250        1.1526761E-17
   13.03500        1.1545063E-17
   13.17750        1.1551391E-17
   13.32000        1.1544457E-17
   13.46250        1.1530891E-17
   13.60500        1.1521273E-17
   13.74750        1.1523764E-17
   13.89000        1.1539178E-17
   14.03250        1.1560444E-17
   14.17500        1.1576797E-17
   14.31750        1.1580180E-17
   14.46000        1.1570018E-17
   14.60250        1.1553536E-17
   14.74500        1.1541423E-17
   14.88750        1.1541470E-17
   15.03000        1.1554013E-17
   15.17250        1.1571868E-17
   15.31500        1.1584795E-17
   15.45750        1.1585764E-17
   15.60000        1.1575230E-17
   15.74250        1.1560871E-17
   15.88500        1.1552942E-17
   16.02750        1.1558072E-17
   16.17000        1.1575251E-17
   16.31250        1.1596405E-17
   16.45500        1.1611225E-17
   16.59750        1.1613299E-17
   16.74000        1.1603888E-17
   16.88250        1.1591063E-17
   17.02500        1.1584769E-17
   17.16750        1.1590800E-17
   17.31000        1.1607335E-17
   17.45250        1.1626103E-17
   17.59500        1.1637448E-17
   17.73750        1.1636208E-17
   17.88000        1.1624848E-17
   18.02250        1.1611951E-17
   18.16500        1.1607000E-17
   18.30750        1.1614623E-17
   18.45000        1.1631801E-17
   18.59250        1.1649716E-17
   18.73500        1.1659126E-17
   18.87750        1.1656002E-17
   19.02000        1.1644001E-17
   19.16250        1.1632267E-17
   19.30500        1.1629911E-17
   19.44750        1.1640489E-17
   19.59000        1.1659837E-17
   19.73250        1.1678580E-17
   19.87500        1.1687792E-17
   20.01750        1.1684374E-17
   20.16000        1.1672906E-17
   20.30250        1.1662823E-17
   20.44500        1.1662643E-17
   20.58750        1.1674739E-17
   20.73000        1.1693839E-17
   20.87250        1.1710183E-17
   21.01500        1.1715438E-17
   21.15750        1.1707806E-17
   21.30000        1.1693215E-17
   21.44250        1.1681850E-17
   21.58500        1.1682084E-17
   21.72750        1.1695484E-17
   21.87000        1.1715865E-17
   22.01250        1.1733016E-17
   22.15500        1.1738823E-17
   22.29750        1.1732133E-17
   22.44000        1.1719407E-17
   22.58250        1.1710762E-17
   22.72500        1.1713790E-17
   22.86750        1.1728878E-17
   23.01000        1.1748872E-17
   23.15250        1.1763294E-17
   23.29500        1.1764613E-17
   23.43750        1.1752791E-17
   23.58000        1.1735378E-17
   23.72250        1.1723072E-17
   23.86500        1.1723408E-17
   24.00750        1.1736356E-17
   24.15000        1.1754432E-17
   24.29250        1.1767284E-17
   24.43500        1.1767955E-17
   24.57750        1.1757083E-17
   24.72000        1.1742501E-17
   24.86250        1.1734512E-17
   25.00500        1.1739657E-17
   25.14750        1.1756759E-17
   25.29000        1.1777591E-17
   25.43250        1.1791781E-17
   25.57500        1.1793006E-17
   25.71750        1.1782747E-17
   25.86000        1.1769371E-17
   26.00250        1.1763106E-17
   26.14500        1.1769921E-17
   26.28750        1.1788006E-17
   26.43000        1.1808917E-17
   26.57250        1.1822686E-17
   26.71500        1.1823798E-17
   26.85750        1.1814436E-17
   27.00000        1.1803059E-17
   27.14250        1.1799209E-17
   27.28500        1.1807683E-17
   27.42750        1.1825621E-17
   27.57000        1.1844216E-17
   27.71250        1.1854044E-17
   27.85500        1.1850744E-17
   27.99750        1.1837645E-17
   28.14000        1.1823761E-17
   28.28250        1.1818365E-17
   28.42500        1.1825456E-17
   28.56750        1.1841430E-17
   28.71000        1.1857356E-17
   28.85250        1.1864459E-17
   28.99500        1.1859473E-17
   29.13750        1.1846620E-17
   29.28000        1.1835040E-17
   29.42250        1.1833219E-17
   29.56500        1.1843833E-17
   29.70750        1.1862109E-17
   29.85000        1.1878721E-17
   29.99250        1.1885443E-17
   30.13500        1.1880140E-17
   30.27750        1.1868057E-17
   30.42000        1.1858628E-17
   30.56250        1.1859719E-17
   30.70500        1.1872812E-17
   30.84750        1.1892044E-17
   30.99000        1.1907692E-17
   31.13250        1.1912022E-17
   31.27500        1.1903946E-17
   31.41750        1.1889679E-17
   31.56000        1.1878984E-17
   31.70250        1.1879277E-17
   31.84500        1.1891141E-17
   31.98750        1.1907989E-17
   32.13000        1.1920080E-17
   32.27250        1.1920466E-17
   32.41500        1.1909268E-17
   32.55750        1.1893684E-17
   32.70000        1.1883694E-17
   32.84250        1.1886038E-17
   32.98500        1.1900086E-17
   33.12750        1.1918127E-17
   33.27000        1.1929904E-17
   33.41250        1.1928706E-17
   33.55500        1.1915364E-17
   33.69750        1.1897737E-17
   33.84000        1.1886016E-17
   33.98250        1.1886640E-17
   34.12500        1.1898508E-17
   34.26750        1.1913742E-17
   34.41000        1.1922542E-17
   34.55250        1.1919228E-17
   34.69500        1.1905788E-17
   34.83750        1.1890821E-17
   34.98000        1.1884475E-17
   35.12250        1.1892408E-17
   35.26500        1.1912405E-17
   35.40750        1.1935671E-17
   35.55000        1.1952037E-17
   35.69250        1.1955944E-17
   35.83500        1.1949655E-17
   35.97750        1.1941763E-17
   36.12000        1.1941926E-17
   36.26250        1.1954992E-17
   36.40500        1.1978047E-17
   36.54750        1.2002139E-17
   36.69000        1.2017631E-17
   36.83250        1.2019936E-17
   36.97500        1.2012201E-17
   37.11750        1.2003329E-17
   37.26000        1.2002548E-17
   37.40250        1.2013810E-17
   37.54500        1.2033379E-17
   37.68750        1.2052063E-17
   37.83000        1.2060714E-17
   37.97250        1.2055690E-17
   38.11500        1.2041005E-17
   38.25750        1.2025870E-17
   38.40000        1.2019165E-17
   38.54250        1.2024147E-17
   38.68500        1.2036615E-17
   38.82750        1.2047580E-17
   38.97000        1.2048820E-17
   39.11250        1.2037939E-17
   39.25500        1.2019865E-17
   39.39750        1.2003906E-17
   39.54000        1.1998144E-17
   39.68250        1.2004579E-17
   39.82500        1.2017967E-17
   39.96750        1.2029037E-17
   40.11000        1.2030138E-17
   40.25250        1.2019890E-17
   40.39500        1.2004023E-17
   40.53750        1.1991900E-17
   40.68000        1.1990827E-17
   40.82250        1.2001604E-17
   40.96500        1.2018025E-17
   41.10750        1.2030611E-17
   41.25000        1.2032330E-17
   41.39250        1.2022838E-17
   41.53500        1.2008668E-17
   41.67750        1.1999252E-17
   41.82000        1.2001192E-17
   41.96250        1.2014243E-17
   42.10500        1.2031470E-17
   42.24750        1.2043482E-17
   42.39000        1.2044178E-17
   42.53250        1.2034547E-17
   42.67500        1.2022162E-17
   42.81750        1.2016678E-17
   42.96000        1.2024017E-17
   43.10250        1.2042758E-17
   43.24500        1.2064900E-17
   43.38750        1.2080588E-17
   43.53000        1.2083945E-17
   43.67250        1.2076518E-17
   43.81500        1.2066253E-17
   43.95750        1.2062614E-17
   44.10000        1.2070800E-17
   44.24250        1.2088528E-17
   44.38500        1.2107362E-17
   44.52750        1.2117781E-17
   44.67000        1.2114955E-17
   44.81250        1.2101739E-17
   44.95500        1.2087066E-17
   45.09750        1.2080693E-17
   45.24000        1.2087421E-17
   45.38250        1.2104266E-17
   45.52500        1.2122272E-17
   45.66750        1.2131880E-17
   45.81000        1.2128629E-17
   45.95250        1.2115791E-17
   46.09500        1.2102347E-17
   46.23750        1.2097543E-17
   46.38000        1.2105299E-17
   46.52250        1.2121829E-17
   46.66500        1.2137911E-17
   46.80750        1.2144416E-17
   46.95000        1.2137801E-17
   47.09250        1.2122252E-17
   47.23500        1.2107203E-17
   47.37750        1.2101726E-17
   47.52000        1.2109158E-17
   47.66250        1.2125184E-17
   47.80500        1.2140505E-17
   47.94750        1.2146469E-17
   48.09000        1.2140269E-17
   48.23250        1.2126593E-17
   48.37500        1.2114753E-17
   48.51750        1.2113053E-17
   48.66000        1.2123780E-17
   48.80250        1.2141859E-17
   48.94500        1.2157934E-17
   49.08750        1.2164021E-17
   49.23000        1.2158303E-17
   49.37250        1.2146184E-17
   49.51500        1.2136972E-17
   49.65750        1.2138230E-17
   49.80000        1.2151182E-17
   49.94250        1.2169972E-17
   50.08500        1.2185193E-17
   50.22750        1.2189549E-17
   50.37000        1.2182221E-17
   50.51250        1.2169302E-17
   50.65500        1.2160070E-17
   50.79750        1.2161344E-17
   50.94000        1.2173372E-17
   51.08250        1.2189715E-17
   51.22500        1.2201202E-17
   51.36750        1.2201539E-17
   51.51000        1.2191161E-17
   51.65250        1.2176994E-17
   51.79500        1.2168252E-17
   51.93750        1.2170825E-17
   52.08000        1.2183666E-17
   52.22250        1.2199367E-17
   52.36500        1.2208601E-17
   52.50750        1.2205746E-17
   52.65000        1.2192306E-17
   52.79250        1.2176019E-17
   52.93500        1.2166237E-17
   53.07750        1.2168313E-17
   53.22000        1.2180426E-17
   53.36250        1.2194755E-17
   53.50500        1.2202290E-17
   53.64750        1.2198385E-17
   53.79000        1.2185661E-17
   53.93250        1.2172505E-17
   54.07500        1.2168016E-17
   54.21750        1.2176478E-17
   54.36000        1.2194657E-17
   54.50250        1.2213615E-17
   54.64500        1.2223960E-17
   54.78750        1.2221398E-17
   54.93000        1.2209254E-17
   55.07250        1.2196447E-17
   55.21500        1.2192125E-17
   55.35750        1.2200183E-17
   55.50000        1.2216961E-17
   55.64250        1.2233515E-17
   55.78500        1.2241068E-17
   55.92750        1.2236393E-17
   56.07000        1.2223836E-17
   56.21250        1.2212782E-17
   56.35500        1.2212036E-17
   56.49750        1.2224519E-17
   56.64000        1.2245440E-17
   56.78250        1.2265067E-17
   56.92500        1.2274455E-17
   57.06750        1.2270685E-17
   57.21000        1.2258514E-17
   57.35250        1.2247440E-17
   57.49500        1.2245973E-17
   57.63750        1.2256532E-17
   57.78000        1.2274043E-17
   57.92250        1.2289038E-17
   58.06500        1.2293396E-17
   58.20750        1.2285246E-17
   58.35000        1.2270089E-17
   58.49250        1.2257482E-17
   58.63500        1.2255278E-17
   58.77750        1.2264914E-17
   58.92000        1.2280559E-17
   59.06250        1.2292647E-17
   59.20500        1.2293649E-17
   59.34750        1.2282630E-17
   59.49000        1.2265828E-17
   59.63250        1.2252959E-17
   59.77500        1.2251446E-17
   59.91750        1.2262064E-17
   60.06000        1.2278600E-17
   60.20250        1.2291682E-17
   60.34500        1.2294467E-17
   60.48750        1.2286716E-17
   60.63000        1.2274817E-17
   60.77250        1.2267778E-17
   60.91500        1.2271626E-17
   61.05750        1.2285632E-17
   61.20000        1.2302666E-17
   61.34250        1.2313466E-17
   61.48500        1.2312238E-17
   61.62750        1.2300207E-17
   61.77000        1.2284953E-17
   61.91250        1.2275933E-17
   62.05500        1.2278890E-17
   62.19750        1.2292511E-17
   62.34000        1.2309337E-17
   62.48250        1.2320359E-17
   62.62500        1.2320498E-17
   62.76750        1.2311639E-17
   62.91000        1.2301386E-17
   63.05250        1.2298300E-17
   63.19500        1.2306527E-17
   63.33750        1.2323084E-17
   63.48000        1.2339518E-17
   63.62250        1.2346921E-17
   63.76500        1.2341308E-17
   63.90750        1.2326095E-17
   64.05000        1.2310149E-17
   64.19250        1.2302570E-17
   64.33500        1.2307321E-17
   64.47750        1.2320939E-17
   64.62000        1.2334715E-17
   64.76250        1.2340019E-17
   64.90500        1.2333551E-17
   65.04750        1.2319359E-17
   65.19000        1.2306382E-17
   65.33250        1.2303002E-17
   65.47500        1.2311908E-17
   65.61750        1.2328373E-17
   65.76000        1.2343036E-17
   65.90250        1.2347517E-17
   66.04500        1.2339511E-17
   66.18750        1.2324272E-17
   66.33000        1.2311576E-17
   66.47250        1.2309960E-17
   66.61500        1.2321673E-17
   66.75750        1.2341375E-17
   66.90000        1.2359341E-17
   67.04250        1.2367269E-17
   67.18500        1.2363206E-17
   67.32750        1.2352617E-17
   67.47000        1.2345005E-17
   67.61250        1.2348082E-17
   67.75500        1.2363045E-17
   67.89750        1.2383770E-17
   68.04000        1.2400436E-17
   68.18250        1.2405391E-17
   68.32500        1.2397737E-17
   68.46750        1.2383876E-17
   68.61000        1.2373677E-17
   68.75250        1.2374581E-17
   68.89500        1.2387144E-17
   69.03750        1.2404724E-17
   69.18000        1.2417449E-17
   69.32250        1.2418108E-17
   69.46500        1.2406408E-17
   69.60750        1.2389084E-17
   69.75000        1.2375807E-17
   69.89250        1.2373391E-17
   70.03500        1.2381798E-17
   70.17750        1.2394314E-17
   70.32000        1.2401795E-17
   70.46250        1.2398358E-17
   70.60500        1.2385092E-17
   70.74750        1.2369514E-17
   70.89000        1.2361112E-17
   71.03250        1.2365651E-17
   71.17500        1.2381682E-17
   71.31750        1.2401346E-17
   71.46000        1.2414988E-17
   71.60250        1.2416798E-17
   71.74500        1.2408091E-17
   71.88750        1.2396278E-17
   72.03000        1.2390193E-17
   72.17250        1.2394637E-17
   72.31500        1.2407454E-17
   72.45750        1.2420904E-17
   72.60000        1.2426489E-17
   72.74250        1.2420288E-17
   72.88500        1.2405508E-17
   73.02750        1.2390720E-17
   73.17000        1.2384779E-17
   73.31250        1.2391522E-17
   73.45500        1.2407427E-17
   73.59750        1.2423674E-17
   73.74000        1.2431362E-17
   73.88250        1.2426757E-17
   74.02500        1.2413394E-17
   74.16750        1.2399795E-17
   74.31000        1.2394189E-17
   74.45250        1.2399456E-17
   74.59500        1.2411369E-17
   74.73750        1.2421211E-17
   74.88000        1.2421181E-17
   75.02250        1.2409317E-17
   75.16500        1.2390899E-17
   75.30750        1.2375471E-17
   75.45000        1.2371216E-17
   75.59250        1.2380073E-17
   75.73500        1.2396558E-17
   75.87750        1.2410992E-17
   76.02000        1.2415259E-17
   76.16250        1.2407599E-17
   76.30500        1.2393603E-17
   76.44750        1.2382780E-17
   76.59000        1.2382783E-17
   76.73250        1.2394776E-17
   76.87500        1.2412734E-17
   77.01750        1.2427102E-17
   77.16000        1.2430610E-17
   77.30250        1.2422730E-17
   77.44500        1.2410064E-17
   77.58750        1.2402413E-17
   77.73000        1.2406856E-17
   77.87250        1.2423415E-17
   78.01500        1.2444904E-17
   78.15750        1.2461074E-17
   78.30000        1.2464600E-17
   78.44250        1.2455325E-17
   78.58500        1.2440243E-17
   78.72750        1.2429243E-17
   78.87000        1.2429193E-17
   79.01250        1.2439890E-17
   79.15500        1.2454328E-17
   79.29750        1.2463061E-17
   79.44000        1.2460034E-17
   79.58250        1.2446343E-17
   79.72500        1.2429658E-17
   79.86750        1.2419649E-17
   80.01000        1.2422167E-17
   80.15250        1.2435707E-17
   80.29500        1.2452240E-17
   80.43750        1.2461973E-17
   80.58000        1.2459128E-17
   80.72250        1.2445325E-17
   80.86500        1.2428538E-17
   81.00750        1.2418284E-17
   81.15000        1.2419952E-17
   81.29250        1.2431692E-17
   81.43500        1.2445692E-17
   81.57750        1.2453033E-17
   81.72000        1.2449165E-17
   81.86250        1.2436664E-17
   82.00500        1.2423616E-17
   82.14750        1.2418621E-17
   82.29000        1.2425456E-17
   82.43250        1.2440655E-17
   82.57500        1.2455472E-17
   82.71750        1.2461071E-17
   82.86000        1.2453806E-17
   83.00250        1.2437409E-17
   83.14500        1.2420784E-17
   83.28750        1.2412731E-17
   83.43000        1.2416791E-17
   83.57250        1.2429317E-17
   83.71500        1.2441897E-17
   83.85750        1.2446638E-17
   84.00000        1.2441060E-17
   84.14250        1.2429641E-17
   84.28500        1.2421039E-17
   84.42750        1.2422708E-17
   84.57000        1.2436167E-17
   84.71250        1.2455849E-17
   84.85500        1.2472256E-17
   84.99750        1.2477544E-17
   85.14000        1.2470191E-17
   85.28250        1.2455911E-17
   85.42500        1.2444257E-17
   85.56750        1.2442946E-17
   85.71000        1.2453310E-17
   85.85250        1.2469606E-17
   85.99500        1.2482609E-17
   86.13750        1.2485271E-17
   86.28000        1.2477046E-17
   86.42250        1.2464227E-17
   86.56500        1.2456091E-17
   86.70750        1.2459172E-17
   86.85000        1.2473148E-17
   86.99250        1.2490854E-17
   87.13500        1.2502452E-17
   87.27750        1.2501294E-17
   87.42000        1.2487943E-17
   87.56250        1.2469932E-17
   87.70500        1.2457377E-17
   87.84750        1.2457063E-17
   87.99000        1.2468516E-17
   88.13250        1.2484425E-17
   88.27500        1.2495118E-17
   88.41750        1.2494414E-17
   88.56000        1.2483306E-17
   88.70250        1.2469280E-17
   88.84500        1.2461672E-17
   88.98750        1.2465896E-17
   89.13000        1.2480016E-17
   89.27250        1.2495758E-17
   89.41500        1.2503390E-17
   89.55750        1.2497520E-17
   89.70000        1.2480378E-17
   89.84250        1.2460573E-17
   89.98500        1.2448098E-17
   90.12750        1.2448536E-17
   90.27000        1.2459936E-17
   90.41250        1.2474199E-17
   90.55500        1.2482088E-17
   90.69750        1.2478848E-17
   90.84000        1.2467035E-17
   90.98250        1.2454880E-17
   91.12500        1.2451206E-17
   91.26750        1.2459983E-17
   91.41000        1.2477821E-17
   91.55250        1.2495929E-17
   91.69500        1.2505331E-17
   91.83750        1.2502221E-17
   91.98000        1.2490222E-17
   92.12250        1.2478178E-17
   92.26500        1.2474844E-17
   92.40750        1.2483658E-17
   92.55000        1.2500722E-17
   92.69250        1.2517212E-17
   92.83500        1.2524697E-17
   92.97750        1.2520174E-17
   93.12000        1.2507777E-17
   93.26250        1.2496135E-17
   93.40500        1.2493044E-17
   93.54750        1.2500683E-17
   93.69000        1.2514289E-17
   93.83250        1.2525103E-17
   93.97500        1.2525793E-17
   94.11750        1.2515027E-17
   94.26000        1.2498454E-17
   94.40250        1.2485424E-17
   94.54500        1.2483447E-17
   94.68750        1.2493729E-17
   94.83000        1.2510458E-17
   94.97250        1.2524289E-17
   95.11500        1.2527913E-17
   95.25750        1.2520346E-17
   95.40000        1.2507359E-17
   95.54250        1.2497797E-17
   95.68500        1.2498059E-17
   95.82750        1.2508099E-17
   95.97000        1.2521393E-17
   96.11250        1.2528920E-17
   96.25500        1.2524756E-17
   96.39750        1.2509854E-17
   96.54000        1.2491721E-17
   96.68250        1.2480103E-17
   96.82500        1.2481271E-17
   96.96750        1.2494319E-17
   97.11000        1.2511711E-17
   97.25250        1.2523760E-17
   97.39500        1.2524353E-17
   97.53750        1.2514497E-17
   97.68000        1.2501547E-17
   97.82250        1.2494612E-17
   97.96500        1.2498922E-17
   98.10750        1.2512568E-17
   98.25000        1.2527602E-17
   98.39250        1.2534868E-17
   98.53500        1.2529616E-17
   98.67750        1.2514549E-17
   98.82000        1.2498390E-17
   98.96250        1.2490823E-17
   99.10500        1.2496807E-17
   99.24750        1.2513640E-17
   99.39000        1.2532572E-17