  -30.00000        4.8965759E-18
  -29.85750        4.9019232E-18
  -29.71500        4.9116996E-18
  -29.57250        4.9243174E-18
  -29.43000        4.9378299E-18
  -29.28750        4.9503033E-18
  -29.14500        4.9601960E-18
  -29.00250        4.9666418E-18
  -28.86000        4.9696043E-18
  -28.71750        4.9698595E-18
  -28.57500        4.9688148E-18
  -28.43250        4.9682056E-18
  -28.29000        4.9697218E-18
  -28.14750        4.9746501E-18
  -28.00500        4.9835982E-18
  -27.86250        4.9963533E-18
  -27.72000        5.0119159E-18
  -27.57750        5.0286870E-18
  -27.43500        5.0447868E-18
  -27.29250        5.0584245E-18
  -27.15000        5.0682601E-18
  -27.00750        5.0736723E-18
  -26.86500        5.0748842E-18
  -26.72250        5.0729217E-18
  -26.58000        5.0694074E-18
  -26.43750        5.0662426E-18
  -26.29500        5.0652272E-18
  -26.15250        5.0677075E-18
  -26.01000        5.0743130E-18
  -25.86750        5.0848372E-18
  -25.72500        5.0982888E-18
  -25.58250        5.1130933E-18
  -25.44000        5.1274159E-18
  -25.29750        5.1395325E-18
  -25.15500        5.1481761E-18
  -25.01250        5.1527955E-18
  -24.87000        5.1536582E-18
  -24.72750        5.1517983E-18
  -24.58500        5.1487990E-18
  -24.44250        5.1464692E-18
  -24.30000        5.1464742E-18
  -24.15750        5.1499930E-18
  -24.01500        5.1574819E-18
  -23.87250        5.1685789E-18
  -23.73000        5.1821807E-18
  -23.58750        5.1966646E-18
  -23.44500        5.2102200E-18
  -23.30250        5.2212137E-18
  -23.16000        5.2285181E-18
  -23.01750        5.2317441E-18
  -22.87500        5.2313177E-18
  -22.73250        5.2283973E-18
  -22.59000        5.2246390E-18
  -22.44750        5.2218655E-18
  -22.30500        5.2216934E-18
  -22.16250        5.2252085E-18
  -22.02000        5.2327417E-18
  -21.87750        5.2438040E-18
  -21.73500        5.2571861E-18
  -21.59250        5.2712031E-18
  -21.45000        5.2840393E-18
  -21.30750        5.2941156E-18
  -21.16500        5.3004092E-18
  -21.02250        5.3026570E-18
  -20.88000        5.3014076E-18
  -20.73750        5.2979069E-18
  -20.59500        5.2938422E-18
  -20.45250        5.2909996E-18
  -20.31000        5.2909016E-18
  -20.16750        5.2944957E-18
  -20.02500        5.3019610E-18
  -19.88250        5.3126717E-18
  -19.74000        5.3253243E-18
  -19.59750        5.3382076E-18
  -19.45500        5.3495557E-18
  -19.31250        5.3579160E-18
  -19.17000        5.3624556E-18
  -19.02750        5.3631397E-18
  -18.88500        5.3607454E-18
  -18.74250        5.3567096E-18
  -18.60000        5.3528404E-18
  -18.45750        5.3509474E-18
  -18.31500        5.3524727E-18
  -18.17250        5.3581927E-18
  -18.03000        5.3680498E-18
  -17.88750        5.3811494E-18
  -17.74500        5.3959283E-18
  -17.60250        5.4104515E-18
  -17.46000        5.4227926E-18
  -17.31750        5.4314114E-18
  -17.17500        5.4354605E-18
  -17.03250        5.4349538E-18
  -16.89000        5.4307699E-18
  -16.74750        5.4244759E-18
  -16.60500        5.4180202E-18
  -16.46250        5.4133441E-18
  -16.32000        5.4120000E-18
  -16.17750        5.4148471E-18
  -16.03500        5.4218939E-18
  -15.89250        5.4323006E-18
  -15.75000        5.4445636E-18
  -15.60750        5.4568191E-18
  -15.46500        5.4672221E-18
  -15.32250        5.4743193E-18
  -15.18000        5.4773352E-18
  -15.03750        5.4763286E-18
  -14.89500        5.4721741E-18
  -14.75250        5.4663834E-18
  -14.61000        5.4607929E-18
  -14.46750        5.4571876E-18
  -14.32500        5.4569320E-18
  -14.18250        5.4606845E-18
  -14.04000        5.4682611E-18
  -13.89750        5.4786666E-18
  -13.75500        5.4902910E-18
  -13.61250        5.5012366E-18
  -13.47000        5.5096966E-18
  -13.32750        5.5143222E-18
  -13.18500        5.5144897E-18
  -13.04250        5.5104316E-18
  -12.90000        5.5031946E-18
  -12.75750        5.4944368E-18
  -12.61500        5.4861075E-18
  -12.47250        5.4800711E-18
  -12.33000        5.4777435E-18
  -12.18750        5.4798255E-18
  -12.04500        5.4861724E-18
  -11.90250        5.4958380E-18
  -11.76000        5.5072784E-18
  -11.61750        5.5186753E-18
  -11.47500        5.5283140E-18
  -11.33250        5.5349343E-18
  -11.19000        5.5379854E-18
  -11.04750        5.5377323E-18
  -10.90500        5.5351866E-18
  -10.76250        5.5318932E-18
  -10.62000        5.5295982E-18
  -10.47750        5.5298807E-18
  -10.33500        5.5338135E-18
  -10.19250        5.5417275E-18
  -10.05000        5.5531191E-18
  -9.907500        5.5667229E-18
  -9.765000        5.5807456E-18
  -9.622500        5.5931984E-18
  -9.480000        5.6022829E-18
  -9.337500        5.6067419E-18
  -9.195000        5.6061074E-18
  -9.052500        5.6007944E-18
  -8.910000        5.5920214E-18
  -8.767500        5.5815741E-18
  -8.625000        5.5714585E-18
  -8.482500        5.5635130E-18
  -8.340000        5.5590681E-18
  -8.197500        5.5587029E-18
  -8.055000        5.5621626E-18
  -7.912500        5.5684397E-18
  -7.770000        5.5760005E-18
  -7.627500        5.5831130E-18
  -7.485000        5.5882081E-18
  -7.342500        5.5902086E-18
  -7.200000        5.5887486E-18
  -7.057500        5.5842529E-18
  -6.915000        5.5778522E-18
  -6.772500        5.5711503E-18
  -6.630000        5.5658936E-18
  -6.487500        5.5636060E-18
  -6.345000        5.5652716E-18
  -6.202500        5.5711268E-18
  -6.060000        5.5806079E-18
  -5.917500        5.5924598E-18
  -5.775000        5.6049911E-18
  -5.632500        5.6164099E-18
  -5.490000        5.6251805E-18
  -5.347500        5.6303223E-18
  -5.205000        5.6315970E-18
  -5.062500        5.6295476E-18
  -4.920000        5.6253778E-18
  -4.777500        5.6207014E-18
  -4.635000        5.6172078E-18
  -4.492500        5.6163128E-18
  -4.350000        5.6188625E-18
  -4.207500        5.6249539E-18
  -4.065000        5.6339123E-18
  -3.922500        5.6444249E-18
  -3.780000        5.6548197E-18
  -3.637500        5.6634120E-18
  -3.495000        5.6688615E-18
  -3.352500        5.6704583E-18
  -3.210000        5.6682775E-18
  -3.067500        5.6631746E-18
  -2.925000        5.6566192E-18
  -2.782500        5.6504079E-18
  -2.640000        5.6463063E-18
  -2.497500        5.6456975E-18
  -2.355000        5.6492991E-18
  -2.212500        5.6570146E-18
  -2.070000        5.6679388E-18
  -1.927500        5.6805251E-18
  -1.785000        5.6928845E-18
  -1.642500        5.7031564E-18
  -1.500000        5.7098785E-18
  -1.357500        5.7122769E-18
  -1.215000        5.7104207E-18
  -1.072500        5.7052049E-18
 -0.9300000        5.6981648E-18
 -0.7875000        5.6911652E-18
 -0.6450000        5.6860226E-18
 -0.5025000        5.6841449E-18
 -0.3600000        5.6862571E-18
 -0.2175000        5.6922587E-18
 -7.5000003E-02    5.7012543E-18
  6.7500003E-02    5.7117338E-18
  0.2100000        5.7218771E-18
  0.3525000        5.7299177E-18
  0.4950000        5.7344954E-18
  0.6375000        5.7349354E-18
  0.7800000        5.7313860E-18
  0.9225000        5.7247963E-18
   1.065000        5.7167250E-18
   1.207500        5.7090281E-18
   1.350000        5.7034831E-18
   1.492500        5.7014296E-18
   1.635000        5.7035042E-18
   1.777500        5.7095178E-18
   1.920000        5.7185072E-18
   2.062500        5.7289355E-18
   2.205000        5.7390105E-18
   2.347500        5.7470437E-18
   2.490000        5.7517872E-18
   2.632500        5.7526801E-18
   2.775000        5.7499574E-18
   2.917500        5.7445985E-18
   3.060000        5.7381362E-18
   3.202500        5.7323430E-18
   3.345000        5.7288759E-18
   3.487500        5.7289384E-18
   3.630000        5.7330292E-18
   3.772500        5.7408456E-18
   3.915000        5.7513413E-18
   4.057500        5.7629475E-18
   4.200000        5.7738981E-18
   4.342500        5.7825938E-18
   4.485000        5.7879271E-18
   4.627500        5.7895033E-18
   4.770000        5.7877128E-18
   4.912500        5.7836448E-18
   5.055000        5.7788587E-18
   5.197500        5.7750677E-18
   5.340000        5.7737852E-18
   5.482500        5.7760140E-18
   5.625000        5.7820309E-18
   5.767500        5.7913165E-18
   5.910000        5.8026435E-18
   6.052500        5.8143125E-18
   6.195000        5.8244889E-18
   6.337500        5.8315741E-18
   6.480000        5.8345342E-18
   6.622500        5.8331151E-18
   6.765000        5.8279051E-18
   6.907500        5.8202194E-18
   7.050000        5.8118425E-18
   7.192500        5.8046849E-18
   7.335000        5.8004113E-18
   7.477500        5.8001288E-18
   7.620000        5.8041791E-18
   7.762500        5.8120890E-18
   7.905000        5.8226670E-18
   8.047500        5.8342480E-18
   8.190000        5.8450199E-18
   8.332500        5.8533844E-18
   8.475000        5.8582726E-18
   8.617500        5.8593496E-18
   8.760000        5.8570781E-18
   8.902500        5.8526056E-18
   9.045000        5.8475176E-18
   9.187500        5.8434950E-18
   9.330000        5.8419565E-18
   9.472500        5.8437605E-18
   9.615000        5.8490280E-18
   9.757500        5.8571191E-18
   9.900000        5.8667677E-18
   10.04250        5.8763432E-18
   10.18500        5.8841782E-18
   10.32750        5.8889072E-18
   10.47000        5.8897456E-18
   10.61250        5.8866540E-18
   10.75500        5.8803587E-18
   10.89750        5.8722180E-18
   11.04000        5.8639586E-18
   11.18250        5.8573375E-18
   11.32500        5.8537851E-18
   11.46750        5.8541193E-18
   11.61000        5.8583801E-18
   11.75250        5.8658318E-18
   11.89500        5.8751206E-18
   12.03750        5.8845662E-18
   12.18000        5.8925146E-18
   12.32250        5.8976782E-18
   12.46500        5.8994013E-18
   12.60750        5.8977870E-18
   12.75000        5.8936755E-18
   12.89250        5.8884734E-18
   13.03500        5.8838668E-18
   13.17750        5.8814854E-18
   13.32000        5.8825603E-18
   13.46250        5.8876648E-18
   13.60500        5.8965731E-18
   13.74750        5.9082881E-18
   13.89000        5.9212190E-18
   14.03250        5.9334927E-18
   14.17500        5.9433279E-18
   14.31750        5.9493961E-18
   14.46000        5.9510922E-18
   14.60250        5.9486545E-18
   14.74500        5.9431198E-18
   14.88750        5.9361111E-18
   15.03000        5.9295156E-18
   15.17250        5.9251166E-18
   15.31500        5.9242477E-18
   15.45750        5.9275386E-18
   15.60000        5.9347976E-18
   15.74250        5.9450500E-18
   15.88500        5.9567286E-18
   16.02750        5.9679816E-18
   16.17000        5.9770404E-18
   16.31250        5.9825730E-18
   16.45500        5.9839536E-18
   16.59750        5.9813922E-18
   16.74000        5.9758906E-18
   16.88250        5.9690341E-18
   17.02500        5.9626636E-18
   17.16750        5.9584963E-18
   17.31000        5.9577812E-18
   17.45250        5.9610485E-18
   17.59500        5.9680155E-18
   17.73750        5.9776509E-18
   17.88000        5.9883873E-18
   18.02250        5.9984355E-18
   18.16500        6.0061365E-18
   18.30750        6.0102914E-18
   18.45000        6.0103981E-18
   18.59250        6.0067569E-18
   18.73500        6.0004141E-18
   18.87750        5.9929587E-18
   19.02000        5.9862015E-18
   19.16250        5.9818050E-18
   19.30500        5.9809484E-18
   19.44750        5.9840855E-18
   19.59000        5.9908593E-18
   19.73250        6.0001878E-18
   19.87500        6.0104945E-18
   20.01750        6.0200369E-18
   20.16000        6.0272631E-18
   20.30250        6.0311178E-18
   20.44500        6.0312505E-18
   20.58750        6.0280733E-18
   20.73000        6.0226772E-18
   20.87250        6.0166094E-18
   21.01500        6.0115632E-18
   21.15750        6.0090362E-18
   21.30000        6.0100201E-18
   21.44250        6.0147892E-18
   21.58500        6.0228377E-18
   21.72750        6.0329740E-18
   21.87000        6.0435652E-18
   22.01250        6.0528743E-18
   22.15500        6.0594222E-18
   22.29750        6.0622930E-18
   22.44000        6.0613173E-18
   22.58250        6.0571037E-18
   22.72500        6.0509048E-18
   22.86750        6.0443626E-18
   23.01000        6.0391774E-18
   23.15250        6.0367724E-18
   23.29500        6.0380123E-18
   23.43750        6.0430304E-18
   23.58000        6.0511963E-18
   23.72250        6.0612358E-18
   23.86500        6.0714747E-18
   24.00750        6.0801741E-18
   24.15000        6.0858809E-18
   24.29250        6.0877337E-18
   24.43500        6.0856401E-18
   24.57750        6.0803023E-18
   24.72000        6.0730736E-18
   24.86250        6.0656774E-18
   25.00500        6.0598590E-18
   25.14750        6.0570329E-18
   25.29000        6.0580115E-18
   25.43250        6.0628521E-18
   25.57500        6.0708655E-18
   25.71750        6.0807614E-18
   25.86000        6.0909089E-18
   26.00250        6.0996613E-18
   26.14500        6.1056819E-18
   26.28750        6.1082127E-18
   26.43000        6.1072300E-18
   26.57250        6.1034518E-18
   26.71500        6.0981972E-18
   26.85750        6.0931141E-18
   27.00000        6.0898340E-18
   27.14250        6.0896247E-18
   27.28500        6.0931257E-18
   27.42750        6.1002080E-18
   27.57000        6.1100060E-18
   27.71250        6.1210997E-18
   27.85500        6.1318051E-18
   27.99750        6.1405165E-18
   28.14000        6.1460231E-18
   28.28250        6.1477461E-18
   28.42500        6.1458465E-18
   28.56750        6.1411928E-18
   28.71000        6.1351899E-18
   28.85250        6.1295026E-18
   28.99500        6.1257245E-18
   29.13750        6.1250512E-18
   29.28000        6.1280315E-18
   29.42250        6.1344471E-18
   29.56500        6.1433496E-18
   29.70750        6.1532576E-18
   29.85000        6.1624645E-18
   29.99250        6.1693976E-18
   30.13500        6.1729437E-18
   30.27750        6.1726757E-18
   30.42000        6.1689323E-18
   30.56250        6.1627433E-18
   30.70500        6.1556142E-18
   30.84750        6.1492284E-18
   30.99000        6.1451091E-18
   31.13250        6.1443228E-18
   31.27500        6.1472647E-18
   31.41750        6.1535724E-18
   31.56000        6.1621924E-18
   31.70250        6.1715809E-18
   31.84500        6.1800148E-18
   31.98750        6.1859465E-18
   32.13000        6.1883317E-18
   32.27250        6.1868544E-18
   32.41500        6.1820038E-18
   32.55750        6.1749769E-18
   32.70000        6.1674376E-18
   32.84250        6.1611783E-18
   32.98500        6.1577579E-18
   33.12750        6.1581988E-18
   33.27000        6.1627905E-18
   33.41250        6.1710350E-18
   33.55500        6.1817453E-18
   33.69750        6.1932692E-18
   33.84000        6.2037988E-18
   33.98250        6.2117141E-18
   34.12500        6.2158934E-18
   34.26750        6.2159314E-18
   34.41000        6.2122265E-18
   34.55250        6.2058986E-18
   34.69500        6.1985677E-18
   34.83750        6.1920176E-18
   34.98000        6.1878371E-18
   35.12250        6.1870972E-18
   35.26500        6.1901457E-18
   35.40750        6.1965580E-18
   35.55000        6.2052447E-18
   35.69250        6.2146927E-18
   35.83500        6.2232760E-18
   35.97750        6.2295820E-18
   36.12000        6.2326876E-18
   36.26250        6.2323344E-18
   36.40500        6.2289802E-18
   36.54750        6.2237065E-18
   36.69000        6.2180097E-18
   36.83250        6.2135012E-18
   36.97500        6.2115776E-18
   37.11750        6.2131298E-18
   37.26000        6.2183489E-18
   37.40250        6.2266848E-18
   37.54500        6.2369588E-18
   37.68750        6.2476133E-18
   37.83000        6.2570415E-18
   37.97250        6.2639249E-18
   38.11500        6.2674954E-18
   38.25750        6.2676823E-18
   38.40000        6.2651127E-18
   38.54250        6.2609702E-18
   38.68500        6.2567511E-18
   38.82750        6.2539578E-18
   38.97000        6.2537989E-18
   39.11250        6.2569360E-18
   39.25500        6.2633388E-18
   39.39750        6.2722703E-18
   39.54000        6.2824194E-18
   39.68250        6.2921598E-18
   39.82500        6.2998808E-18
   39.96750        6.3043252E-18
   40.11000        6.3048608E-18
   40.25250        6.3016195E-18
   40.39500        6.2954715E-18
   40.53750        6.2878457E-18
   40.68000        6.2804308E-18
   40.82250        6.2748391E-18
   40.96500        6.2722815E-18
   41.10750        6.2733361E-18
   41.25000        6.2778426E-18
   41.39250        6.2849365E-18
   41.53500        6.2932199E-18
   41.67750        6.3010301E-18
   41.82000        6.3067683E-18
   41.96250        6.3092196E-18
   42.10500        6.3078118E-18
   42.24750        6.3027449E-18
   42.39000        6.2949694E-18
   42.53250        6.2860052E-18
   42.67500        6.2776395E-18
   42.81750        6.2715635E-18
   42.96000        6.2690360E-18
   43.10250        6.2706428E-18
   43.24500        6.2761982E-18
   43.38750        6.2848062E-18
   43.53000        6.2950587E-18
   43.67250        6.3053257E-18
   43.81500        6.3140735E-18
   43.95750        6.3201525E-18
   44.10000        6.3230100E-18
   44.24250        6.3227862E-18
   44.38500        6.3202745E-18
   44.52750        6.3167606E-18
   44.67000        6.3137509E-18
   44.81250        6.3126532E-18
   44.95500        6.3144730E-18
   45.09750        6.3195825E-18
   45.24000        6.3276327E-18
   45.38250        6.3376205E-18
   45.52500        6.3480983E-18
   45.66750        6.3574798E-18
   45.81000        6.3643665E-18
   45.95250        6.3678278E-18
   46.09500        6.3675789E-18
   46.23750        6.3640228E-18
   46.38000        6.3581639E-18
   46.52250        6.3514079E-18
   46.66500        6.3452946E-18
   46.80750        6.3412075E-18
   46.95000        6.3401082E-18
   47.09250        6.3423478E-18
   47.23500        6.3475934E-18
   47.37750        6.3548916E-18
   47.52000        6.3628631E-18
   47.66250        6.3699938E-18
   47.80500        6.3749610E-18
   47.94750        6.3769244E-18
   48.09000        6.3757088E-18
   48.23250        6.3718438E-18
   48.37500        6.3664469E-18
   48.51750        6.3609891E-18
   48.66000        6.3569889E-18
   48.80250        6.3557088E-18
   48.94500        6.3579042E-18
   49.08750        6.3636713E-18
   49.23000        6.3724195E-18
   49.37250        6.3829661E-18
   49.51500        6.3937442E-18
   49.65750        6.4030877E-18
   49.80000        6.4095471E-18
   49.94250        6.4121796E-18
   50.08500        6.4107449E-18
   50.22750        6.4057652E-18
   50.37000        6.3984306E-18
   50.51250        6.3903574E-18
   50.65500        6.3832630E-18
   50.79750        6.3786238E-18
   50.94000        6.3773867E-18
   51.08250        6.3798038E-18
   51.22500        6.3854116E-18
   51.36750        6.3931478E-18
   51.51000        6.4015776E-18
   51.65250        6.4091832E-18
   51.79500        6.4146554E-18
   51.93750        6.4171522E-18
   52.08000        6.4164607E-18
   52.22250        6.4130502E-18
   52.36500        6.4079850E-18
   52.50750        6.4027175E-18
   52.65000        6.3987880E-18
   52.79250        6.3975038E-18
   52.93500        6.3996553E-18
   53.07750        6.4053459E-18
   53.22000        6.4139721E-18
   53.36250        6.4243549E-18
   53.50500        6.4349957E-18
   53.64750        6.4443838E-18
   53.79000        6.4512966E-18
   53.93250        6.4550251E-18
   54.07500        6.4554916E-18
   54.21750        6.4532396E-18
   54.36000        6.4493105E-18
   54.50250        6.4450299E-18
   54.64500        6.4417381E-18
   54.78750        6.4405159E-18
   54.93000        6.4419540E-18
   55.07250        6.4460154E-18
   55.21500        6.4520315E-18
   55.35750        6.4588338E-18
   55.50000        6.4650079E-18
   55.64250        6.4692104E-18
   55.78500        6.4704710E-18
   55.92750        6.4684192E-18
   56.07000        6.4633713E-18
   56.21250        6.4562667E-18
   56.35500        6.4484775E-18
   56.49750        6.4415354E-18
   56.64000        6.4368337E-18
   56.78250        6.4353659E-18
   56.92500        6.4375418E-18
   57.06750        6.4431100E-18
   57.21000        6.4511973E-18
   57.35250        6.4604650E-18
   57.49500        6.4693601E-18
   57.63750        6.4764164E-18
   57.78000        6.4805531E-18
   57.92250        6.4813071E-18
   58.06500        6.4789381E-18
   58.20750        6.4743782E-18
   58.35000        6.4690338E-18
   58.49250        6.4644818E-18
   58.63500        6.4621364E-18
   58.77750        6.4629524E-18
   58.92000        6.4672417E-18
   59.06250        6.4746173E-18
   59.20500        6.4840835E-18
   59.34750        6.4942297E-18
   59.49000        6.5035020E-18
   59.63250        6.5104917E-18
   59.77500        6.5142016E-18
   59.91750        6.5142409E-18
   60.06000        6.5109169E-18
   60.20250        6.5051890E-18
   60.34500        6.4984951E-18
   60.48750        6.4924637E-18
   60.63000        6.4885826E-18
   60.77250        6.4878840E-18
   60.91500        6.4907295E-18
   61.05750        6.4967452E-18
   61.20000        6.5049111E-18
   61.34250        6.5137942E-18
   61.48500        6.5218551E-18
   61.62750        6.5277603E-18
   61.77000        6.5306459E-18
   61.91250        6.5302783E-18
   62.05500        6.5270903E-18
   62.19750        6.5220983E-18
   62.34000        6.5167096E-18
   62.48250        6.5124542E-18
   62.62500        6.5106782E-18
   62.76750        6.5122660E-18
   62.91000        6.5174355E-18
   63.05250        6.5256688E-18
   63.19500        6.5357964E-18
   63.33750        6.5462300E-18
   63.48000        6.5552897E-18
   63.62250        6.5615552E-18
   63.76500        6.5641563E-18
   63.90750        6.5629395E-18
   64.05000        6.5584785E-18
   64.19250        6.5519396E-18
   64.33500        6.5448362E-18
   64.47750        6.5387267E-18
   64.62000        6.5349192E-18
   64.76250        6.5342264E-18
   64.90500        6.5368117E-18
   65.04750        6.5421553E-18
   65.19000        6.5491483E-18
   65.33250        6.5563096E-18
   65.47500        6.5620887E-18
   65.61750        6.5651965E-18
   65.76000        6.5648995E-18
   65.90250        6.5611912E-18
   66.04500        6.5548116E-18
   66.18750        6.5470961E-18
   66.33000        6.5396957E-18
   66.47250        6.5342309E-18
   66.61500        6.5319657E-18
   66.75750        6.5335626E-18
   66.90000        6.5389674E-18
   67.04250        6.5474336E-18
   67.18500        6.5576691E-18
   67.32750        6.5680779E-18
   67.47000        6.5770545E-18
   67.61250        6.5832757E-18
   67.75500        6.5859574E-18
   67.89750        6.5850099E-18
   68.04000        6.5810638E-18
   68.18250        6.5753534E-18
   68.32500        6.5694618E-18
   68.46750        6.5649855E-18
   68.61000        6.5631951E-18
   68.75250        6.5647700E-18
   68.89500        6.5696653E-18
   69.03750        6.5771463E-18
   69.18000        6.5859620E-18
   69.32250        6.5946176E-18
   69.46500        6.6016813E-18
   69.60750        6.6060604E-18
   69.75000        6.6071986E-18
   69.89250        6.6051791E-18
   70.03500        6.6007044E-18
   70.17750        6.5949708E-18
   70.32000        6.5894440E-18
   70.46250        6.5855769E-18
   70.60500        6.5845148E-18
   70.74750        6.5868479E-18
   70.89000        6.5924769E-18
   71.03250        6.6006217E-18
   71.17500        6.6099850E-18
   71.31750        6.6190318E-18
   71.46000        6.6263139E-18
   71.60250        6.6307700E-18
   71.74500        6.6319268E-18
   71.88750        6.6299705E-18
   72.03000        6.6256844E-18
   72.17250        6.6202714E-18
   72.31500        6.6151193E-18
   72.45750        6.6115335E-18
   72.60000        6.6104962E-18
   72.74250        6.6124752E-18
   72.88500        6.6173266E-18
   73.02750        6.6243097E-18
   73.17000        6.6322221E-18
   73.31250        6.6396402E-18
   73.45500        6.6452208E-18
   73.59750        6.6479935E-18
   73.74000        6.6475770E-18
   73.88250        6.6442646E-18
   74.02500        6.6389483E-18
   74.16750        6.6329210E-18
   74.31000        6.6275915E-18
   74.45250        6.6241943E-18
   74.59500        6.6235470E-18
   74.73750        6.6259065E-18
   74.88000        6.6309346E-18
   75.02250        6.6377683E-18
   75.16500        6.6451848E-18
   75.30750        6.6518300E-18
   75.45000        6.6564754E-18
   75.59250        6.6582704E-18
   75.73500        6.6569308E-18
   75.87750        6.6528218E-18
   76.02000        6.6469041E-18
   76.16250        6.6405485E-18
   76.30500        6.6352442E-18
   76.44750        6.6322829E-18
   76.59000        6.6324818E-18
   76.73250        6.6360221E-18
   76.87500        6.6424307E-18
   77.01750        6.6506963E-18
   77.16000        6.6594901E-18
   77.30250        6.6674327E-18
   77.44500        6.6733565E-18
   77.58750        6.6765135E-18
   77.73000        6.6767107E-18
   77.87250        6.6743479E-18
   78.01500        6.6703448E-18
   78.15750        6.6659739E-18
   78.30000        6.6626127E-18
   78.44250        6.6614571E-18
   78.58500        6.6632583E-18
   78.72750        6.6681490E-18
   78.87000        6.6756015E-18
   79.01250        6.6845396E-18
   79.15500        6.6935765E-18
   79.29750        6.7013132E-18
   79.44000        6.7066336E-18
   79.58250        6.7089245E-18
   79.72500        6.7081763E-18
   79.86750        6.7049619E-18
   80.01000        6.7003073E-18
   80.15250        6.6954882E-18
   80.29500        6.6917849E-18
   80.43750        6.6902455E-18
   80.58000        6.6914792E-18
   80.72250        6.6955241E-18
   80.86500        6.7018219E-18
   81.00750        6.7093136E-18
   81.15000        6.7166462E-18
   81.29250        6.7224580E-18
   81.43500        6.7256761E-18
   81.57750        6.7257518E-18
   81.72000        6.7227752E-18
   81.86250        6.7174444E-18
   82.00500        6.7108985E-18
   82.14750        6.7044672E-18
   82.29000        6.6993929E-18
   82.43250        6.6965900E-18
   82.57500        6.6964828E-18
   82.71750        6.6989379E-18
   82.86000        6.7033000E-18
   83.00250        6.7085175E-18
   83.14500        6.7133391E-18
   83.28750        6.7165560E-18
   83.43000        6.7172529E-18
   83.57250        6.7150129E-18
   83.71500        6.7100341E-18
   83.85750        6.7031106E-18
   84.00000        6.6954791E-18
   84.14250        6.6885593E-18
   84.28500        6.6836495E-18
   84.42750        6.6816544E-18
   84.57000        6.6829030E-18
   84.71250        6.6871018E-18
   84.85500        6.6934173E-18
   84.99750        6.7006576E-18
   85.14000        6.7075104E-18
   85.28250        6.7127837E-18
   85.42500        6.7156197E-18
   85.56750        6.7156499E-18
   85.71000        6.7130649E-18
   85.85250        6.7085932E-18
   85.99500        6.7033724E-18
   86.13750        6.6987311E-18
   86.28000        6.6959183E-18
   86.42250        6.6958298E-18
   86.56500        6.6988051E-18
   86.70750        6.7045466E-18
   86.85000        6.7121811E-18
   86.99250        6.7204554E-18
   87.13500        6.7280063E-18
   87.27750        6.7336452E-18
   87.42000        6.7365862E-18
   87.56250        6.7365846E-18
   87.70500        6.7339587E-18
   87.84750        6.7295196E-18
   87.99000        6.7244163E-18
   88.13250        6.7199309E-18
   88.27500        6.7172488E-18
   88.41750        6.7172393E-18
   88.56000        6.7202788E-18
   88.70250        6.7261666E-18
   88.84500        6.7341485E-18
   88.98750        6.7430713E-18
   89.13000        6.7516277E-18
   89.27250        6.7586459E-18
   89.41500        6.7633496E-18
   89.55750        6.7655210E-18
   89.70000        6.7655297E-18
   89.84250        6.7642331E-18
   89.98500        6.7627706E-18
   90.12750        6.7623181E-18
   90.27000        6.7638455E-18
   90.41250        6.7679285E-18
   90.55500        6.7746307E-18
   90.69750        6.7834811E-18
   90.84000        6.7935421E-18
   90.98250        6.8035630E-18
   91.12500        6.8122066E-18
   91.26750        6.8183071E-18
   91.41000        6.8211195E-18
   91.55250        6.8204938E-18
   91.69500        6.8169224E-18
   91.83750        6.8114552E-18
   91.98000        6.8054750E-18
   92.12250        6.8004098E-18
   92.26500        6.7974340E-18
   92.40750        6.7972384E-18
   92.55000        6.7999160E-18
   92.69250        6.8049738E-18
   92.83500        6.8114543E-18
   92.97750        6.8181396E-18
   93.12000        6.8237880E-18
   93.26250        6.8273738E-18
   93.40500        6.8282837E-18
   93.54750        6.8264540E-18
   93.69000        6.8223954E-18
   93.83250        6.8171172E-18
   93.97500        6.8119291E-18
   94.11750        6.8081700E-18
   94.26000        6.8069094E-18
   94.40250        6.8087039E-18
   94.54500        6.8134615E-18
   94.68750        6.8204578E-18
   94.83000        6.8284913E-18
   94.97250        6.8361374E-18
   95.11500        6.8420397E-18
   95.25750        6.8451702E-18
   95.40000        6.8450052E-18
   95.54250        6.8416071E-18
   95.68500        6.8355952E-18
   95.82750        6.8280244E-18
   95.97000        6.8201951E-18
   96.11250        6.8134118E-18
   96.25500        6.8087395E-18
   96.39750        6.8067923E-18
   96.54000        6.8076001E-18
   96.68250        6.8106007E-18
   96.82500        6.8147618E-18
   96.96750        6.8188162E-18
   97.11000        6.8215521E-18
   97.25250        6.8220906E-18
   97.39500        6.8200793E-18
   97.53750        6.8157524E-18
   97.68000        6.8098670E-18
   97.82250        6.8035233E-18
   97.96500        6.7979386E-18
   98.10750        6.7942031E-18
   98.25000        6.7930806E-18
   98.39250        6.7948648E-18
   98.53500        6.7993229E-18
   98.67750        6.8057220E-18
   98.82000        6.8129466E-18
   98.96250        6.8196951E-18
   99.10500        6.8247322E-18
   99.24750        6.8271406E-18
   99.39000        6.8265227E-18