  -30.00000        9.7844703E-19
  -29.85750        9.8019931E-19
  -29.71500        9.8339739E-19
  -29.57250        9.8751313E-19
  -29.43000        9.9190536E-19
  -29.28750        9.9594789E-19
  -29.14500        9.9914867E-19
  -29.00250        1.0012395E-18
  -28.86000        1.0022155E-18
  -28.71750        1.0023274E-18
  -28.57500        1.0020215E-18
  -28.43250        1.0018472E-18
  -28.29000        1.0023454E-18
  -28.14750        1.0039349E-18
  -28.00500        1.0068211E-18
  -27.86250        1.0109470E-18
  -27.72000        1.0159937E-18
  -27.57750        1.0214397E-18
  -27.43500        1.0266648E-18
  -27.29250        1.0310778E-18
  -27.15000        1.0342389E-18
  -27.00750        1.0359522E-18
  -26.86500        1.0363039E-18
  -26.72250        1.0356401E-18
  -26.58000        1.0344946E-18
  -26.43750        1.0334804E-18
  -26.29500        1.0331691E-18
  -26.15250        1.0339831E-18
  -26.01000        1.0361169E-18
  -25.86750        1.0395037E-18
  -25.72500        1.0438287E-18
  -25.58250        1.0485910E-18
  -25.44000        1.0532010E-18
  -25.29750        1.0570988E-18
  -25.15500        1.0598671E-18
  -25.01250        1.0613223E-18
  -24.87000        1.0615532E-18
  -24.72750        1.0609028E-18
  -24.58500        1.0598974E-18
  -24.44250        1.0591307E-18
  -24.30000        1.0591406E-18
  -24.15750        1.0602959E-18
  -24.01500        1.0627259E-18
  -23.87250        1.0662963E-18
  -23.73000        1.0706436E-18
  -23.58750        1.0752502E-18
  -23.44500        1.0795478E-18
  -23.30250        1.0830292E-18
  -23.16000        1.0853464E-18
  -23.01750        1.0863815E-18
  -22.87500        1.0862731E-18
  -22.73250        1.0853908E-18
  -22.59000        1.0842638E-18
  -22.44750        1.0834727E-18
  -22.30500        1.0835276E-18
  -22.16250        1.0847582E-18
  -22.02000        1.0872422E-18
  -21.87750        1.0907888E-18
  -21.73500        1.0949824E-18
  -21.59250        1.0992730E-18
  -21.45000        1.1030937E-18
  -21.30750        1.1059791E-18
  -21.16500        1.1076593E-18
  -21.02250        1.1081119E-18
  -20.88000        1.1075650E-18
  -20.73750        1.1064529E-18
  -20.59500        1.1053313E-18
  -20.45250        1.1047687E-18
  -20.31000        1.1052347E-18
  -20.16750        1.1070018E-18
  -20.02500        1.1100837E-18
  -19.88250        1.1142282E-18
  -19.74000        1.1189617E-18
  -19.59750        1.1236896E-18
  -19.45500        1.1278184E-18
  -19.31250        1.1308854E-18
  -19.17000        1.1326599E-18
  -19.02750        1.1331918E-18
  -18.88500        1.1328006E-18
  -18.74250        1.1320101E-18
  -18.60000        1.1314399E-18
  -18.45750        1.1316801E-18
  -18.31500        1.1331760E-18
  -18.17250        1.1361385E-18
  -18.03000        1.1404971E-18
  -17.88750        1.1459045E-18
  -17.74500        1.1517951E-18
  -17.60250        1.1574830E-18
  -17.46000        1.1622885E-18
  -17.31750        1.1656689E-18
  -17.17500        1.1673275E-18
  -17.03250        1.1672758E-18
  -16.89000        1.1658321E-18
  -16.74750        1.1635596E-18
  -16.60500        1.1611534E-18
  -16.46250        1.1593017E-18
  -16.32000        1.1585520E-18
  -16.17750        1.1592140E-18
  -16.03500        1.1613066E-18
  -15.89250        1.1645689E-18
  -15.75000        1.1685212E-18
  -15.60750        1.1725619E-18
  -15.46500        1.1760860E-18
  -15.32250        1.1785998E-18
  -15.18000        1.1798150E-18
  -15.03750        1.1797044E-18
  -14.89500        1.1785055E-18
  -14.75250        1.1766706E-18
  -14.61000        1.1747733E-18
  -14.46750        1.1733805E-18
  -14.32500        1.1729344E-18
  -14.18250        1.1736497E-18
  -14.04000        1.1754705E-18
  -13.89750        1.1780816E-18
  -13.75500        1.1809774E-18
  -13.61250        1.1835727E-18
  -13.47000        1.1853263E-18
  -13.32750        1.1858530E-18
  -13.18500        1.1850022E-18
  -13.04250        1.1828945E-18
  -12.90000        1.1799015E-18
  -12.75750        1.1765824E-18
  -12.61500        1.1735872E-18
  -12.47250        1.1715358E-18
  -12.33000        1.1709019E-18
  -12.18750        1.1719212E-18
  -12.04500        1.1745431E-18
  -11.90250        1.1784387E-18
  -11.76000        1.1830666E-18
  -11.61750        1.1877821E-18
  -11.47500        1.1919681E-18
  -11.33250        1.1951539E-18
  -11.19000        1.1971033E-18
  -11.04750        1.1978503E-18
  -10.90500        1.1976760E-18
  -10.76250        1.1970411E-18
  -10.62000        1.1964836E-18
  -10.47750        1.1965072E-18
  -10.33500        1.1974786E-18
  -10.19250        1.1995528E-18
  -10.05000        1.2026383E-18
  -9.907500        1.2064100E-18
  -9.765000        1.2103685E-18
  -9.622500        1.2139360E-18
  -9.480000        1.2165722E-18
  -9.337500        1.2178849E-18
  -9.195000        1.2177131E-18
  -9.052500        1.2161616E-18
  -8.910000        1.2135764E-18
  -8.767500        1.2104741E-18
  -8.625000        1.2074303E-18
  -8.482500        1.2049676E-18
  -8.340000        1.2034561E-18
  -8.197500        1.2030493E-18
  -8.055000        1.2036697E-18
  -7.912500        1.2050357E-18
  -7.770000        1.2067273E-18
  -7.627500        1.2082763E-18
  -7.485000        1.2092635E-18
  -7.342500        1.2094096E-18
  -7.200000        1.2086347E-18
  -7.057500        1.2070839E-18
  -6.915000        1.2051045E-18
  -6.772500        1.2031749E-18
  -6.630000        1.2018035E-18
  -6.487500        1.2014191E-18
  -6.345000        1.2022727E-18
  -6.202500        1.2043826E-18
  -6.060000        1.2075274E-18
  -5.917500        1.2112943E-18
  -5.775000        1.2151664E-18
  -5.632500        1.2186292E-18
  -5.490000        1.2212707E-18
  -5.347500        1.2228604E-18
  -5.205000        1.2233892E-18
  -5.062500        1.2230678E-18
  -4.920000        1.2222828E-18
  -4.777500        1.2215210E-18
  -4.635000        1.2212686E-18
  -4.492500        1.2219104E-18
  -4.350000        1.2236417E-18
  -4.207500        1.2264170E-18
  -4.065000        1.2299441E-18
  -3.922500        1.2337360E-18
  -3.780000        1.2372061E-18
  -3.637500        1.2397879E-18
  -3.495000        1.2410540E-18
  -3.352500        1.2408059E-18
  -3.210000        1.2391164E-18
  -3.067500        1.2363150E-18
  -2.925000        1.2329249E-18
  -2.782500        1.2295654E-18
  -2.640000        1.2268381E-18
  -2.497500        1.2252179E-18
  -2.355000        1.2249732E-18
  -2.212500        1.2261198E-18
  -2.070000        1.2284224E-18
  -1.927500        1.2314431E-18
  -1.785000        1.2346306E-18
  -1.642500        1.2374347E-18
  -1.500000        1.2394198E-18
  -1.357500        1.2403621E-18
  -1.215000        1.2402934E-18
  -1.072500        1.2394948E-18
 -0.9300000        1.2384313E-18
 -0.7875000        1.2376483E-18
 -0.6450000        1.2376481E-18
 -0.5025000        1.2387823E-18
 -0.3600000        1.2411731E-18
 -0.2175000        1.2446865E-18
 -7.5000003E-02    1.2489550E-18
  6.7500003E-02    1.2534445E-18
  0.2100000        1.2575556E-18
  0.3525000        1.2607368E-18
  0.4950000        1.2625915E-18
  0.6375000        1.2629616E-18
  0.7800000        1.2619654E-18
  0.9225000        1.2599815E-18
   1.065000        1.2575793E-18
   1.207500        1.2554064E-18
   1.350000        1.2540578E-18
   1.492500        1.2539505E-18
   1.635000        1.2552394E-18
   1.777500        1.2577851E-18
   1.920000        1.2611860E-18
   2.062500        1.2648608E-18
   2.205000        1.2681663E-18
   2.347500        1.2705222E-18
   2.490000        1.2715209E-18
   2.632500        1.2710041E-18
   2.775000        1.2690924E-18
   2.917500        1.2661659E-18
   3.060000        1.2627980E-18
   3.202500        1.2596507E-18
   3.345000        1.2573539E-18
   3.487500        1.2563843E-18
   3.630000        1.2569732E-18
   3.772500        1.2590641E-18
   3.915000        1.2623276E-18
   4.057500        1.2662352E-18
   4.200000        1.2701705E-18
   4.342500        1.2735586E-18
   4.485000        1.2759754E-18
   4.627500        1.2772221E-18
   4.770000        1.2773477E-18
   4.912500        1.2766183E-18
   5.055000        1.2754499E-18
   5.197500        1.2743133E-18
   5.340000        1.2736348E-18
   5.482500        1.2737084E-18
   5.625000        1.2746349E-18
   5.767500        1.2762972E-18
   5.910000        1.2783815E-18
   6.052500        1.2804395E-18
   6.195000        1.2819849E-18
   6.337500        1.2826030E-18
   6.480000        1.2820513E-18
   6.622500        1.2803234E-18
   6.765000        1.2776643E-18
   6.907500        1.2745274E-18
   7.050000        1.2714871E-18
   7.192500        1.2691242E-18
   7.335000        1.2679139E-18
   7.477500        1.2681363E-18
   7.620000        1.2698297E-18
   7.762500        1.2727897E-18
   7.905000        1.2766116E-18
   8.047500        1.2807682E-18
   8.190000        1.2847074E-18
   8.332500        1.2879554E-18
   8.475000        1.2902042E-18
   8.617500        1.2913714E-18
   8.760000        1.2916146E-18
   8.902500        1.2912962E-18
   9.045000        1.2909036E-18
   9.187500        1.2909392E-18
   9.330000        1.2918068E-18
   9.472500        1.2937164E-18
   9.615000        1.2966344E-18
   9.757500        1.3002876E-18
   9.900000        1.3042154E-18
   10.04250        1.3078638E-18
   10.18500        1.3106918E-18
   10.32750        1.3122751E-18
   10.47000        1.3123884E-18
   10.61250        1.3110459E-18
   10.75500        1.3085029E-18
   10.89750        1.3052152E-18
   11.04000        1.3017551E-18
   11.18250        1.2987108E-18
   11.32500        1.2965740E-18
   11.46750        1.2956474E-18
   11.61000        1.2959911E-18
   11.75250        1.2974147E-18
   11.89500        1.2995290E-18
   12.03750        1.3018368E-18
   12.18000        1.3038433E-18
   12.32250        1.3051612E-18
   12.46500        1.3055926E-18
   12.60750        1.3051604E-18
   12.75000        1.3040984E-18
   12.89250        1.3027992E-18
   13.03500        1.3017324E-18
   13.17750        1.3013517E-18
   13.32000        1.3020007E-18
   13.46250        1.3038413E-18
   13.60500        1.3068119E-18
   13.74750        1.3106288E-18
   13.89000        1.3148317E-18
   14.03250        1.3188709E-18
   14.17500        1.3222172E-18
   14.31750        1.3244693E-18
   14.46000        1.3254393E-18
   14.60250        1.3251888E-18
   14.74500        1.3240122E-18
   14.88750        1.3223695E-18
   15.03000        1.3207889E-18
   15.17250        1.3197588E-18
   15.31500        1.3196337E-18
   15.45750        1.3205708E-18
   15.60000        1.3225044E-18
   15.74250        1.3251635E-18
   15.88500        1.3281221E-18
   16.02750        1.3308806E-18
   16.17000        1.3329634E-18
   16.31250        1.3340157E-18
   16.45500        1.3338831E-18
   16.59750        1.3326528E-18
   16.74000        1.3306484E-18
   16.88250        1.3283710E-18
   17.02500        1.3263994E-18
   17.16750        1.3252704E-18
   17.31000        1.3253667E-18
   17.45250        1.3268386E-18
   17.59500        1.3295749E-18
   17.73750        1.3332277E-18
   17.88000        1.3372807E-18
   18.02250        1.3411463E-18
   18.16500        1.3442713E-18
   18.30750        1.3462312E-18
   18.45000        1.3468011E-18
   18.59250        1.3459939E-18
   18.73500        1.3440551E-18
   18.87750        1.3414167E-18
   19.02000        1.3386187E-18
   19.16250        1.3362021E-18
   19.30500        1.3346039E-18
   19.44750        1.3340709E-18
   19.59000        1.3346155E-18
   19.73250        1.3360210E-18
   19.87500        1.3379013E-18
   20.01750        1.3397900E-18
   20.16000        1.3412471E-18
   20.30250        1.3419526E-18
   20.44500        1.3417691E-18
   20.58750        1.3407638E-18
   20.73000        1.3391894E-18
   20.87250        1.3374300E-18
   21.01500        1.3359233E-18
   21.15750        1.3350717E-18
   21.30000        1.3351640E-18
   21.44250        1.3363123E-18
   21.58500        1.3384269E-18
   21.72750        1.3412295E-18
   21.87000        1.3443116E-18
   22.01250        1.3472219E-18
   22.15500        1.3495669E-18
   22.29750        1.3510993E-18
   22.44000        1.3517741E-18
   22.58250        1.3517564E-18
   22.72500        1.3513830E-18
   22.86750        1.3510855E-18
   23.01000        1.3512968E-18
   23.15250        1.3523562E-18
   23.29500        1.3544373E-18
   23.43750        1.3575084E-18
   23.58000        1.3613284E-18
   23.72250        1.3654847E-18
   23.86500        1.3694623E-18
   24.00750        1.3727383E-18
   24.15000        1.3748803E-18
   24.29250        1.3756370E-18
   24.43500        1.3749939E-18
   24.57750        1.3731818E-18
   24.72000        1.3706352E-18
   24.86250        1.3678999E-18
   25.00500        1.3655257E-18
   25.14750        1.3639506E-18
   25.29000        1.3634206E-18
   25.43250        1.3639473E-18
   25.57500        1.3653212E-18
   25.71750        1.3671655E-18
   25.86000        1.3690196E-18
   26.00250        1.3704346E-18
   26.14500        1.3710659E-18
   26.28750        1.3707405E-18
   26.43000        1.3695030E-18
   26.57250        1.3676113E-18
   26.71500        1.3654983E-18
   26.85750        1.3636913E-18
   27.00000        1.3627065E-18
   27.14250        1.3629388E-18
   27.28500        1.3645736E-18
   27.42750        1.3675409E-18
   27.57000        1.3715233E-18
   27.71250        1.3760191E-18
   27.85500        1.3804459E-18
   27.99750        1.3842553E-18
   28.14000        1.3870363E-18
   28.28250        1.3885851E-18
   28.42500        1.3889325E-18
   28.56750        1.3883213E-18
   28.71000        1.3871496E-18
   28.85250        1.3858900E-18
   28.99500        1.3849912E-18
   29.13750        1.3847915E-18
   29.28000        1.3854466E-18
   29.42250        1.3868943E-18
   29.56500        1.3888618E-18
   29.70750        1.3909192E-18
   29.85000        1.3925742E-18
   29.99250        1.3933841E-18
   30.13500        1.3930606E-18
   30.27750        1.3915440E-18
   30.42000        1.3890269E-18
   30.56250        1.3859214E-18
   30.70500        1.3827809E-18
   30.84750        1.3801930E-18
   30.99000        1.3786655E-18
   31.13250        1.3785333E-18
   31.27500        1.3798954E-18
   31.41750        1.3825965E-18
   31.56000        1.3862533E-18
   31.70250        1.3903187E-18
   31.84500        1.3941810E-18
   31.98750        1.3972757E-18
   32.13000        1.3991918E-18
   32.27250        1.3997543E-18
   32.41500        1.3990607E-18
   32.55750        1.3974631E-18
   32.70000        1.3954969E-18
   32.84250        1.3937731E-18
   32.98500        1.3928570E-18
   33.12750        1.3931563E-18
   33.27000        1.3948491E-18
   33.41250        1.3978533E-18
   33.55500        1.4018513E-18
   33.69750        1.4063509E-18
   33.84000        1.4107751E-18
   33.98250        1.4145671E-18
   34.12500        1.4172837E-18
   34.26750        1.4186745E-18
   34.41000        1.4187209E-18
   34.55250        1.4176349E-18
   34.69500        1.4158128E-18
   34.83750        1.4137500E-18
   34.98000        1.4119364E-18
   35.12250        1.4107536E-18
   35.26500        1.4103962E-18
   35.40750        1.4108429E-18
   35.55000        1.4118704E-18
   35.69250        1.4131164E-18
   35.83500        1.4141668E-18
   35.97750        1.4146482E-18
   36.12000        1.4143105E-18
   36.26250        1.4130783E-18
   36.40500        1.4110720E-18
   36.54750        1.4085912E-18
   36.69000        1.4060687E-18
   36.83250        1.4039971E-18
   36.97500        1.4028424E-18
   37.11750        1.4029527E-18
   37.26000        1.4044881E-18
   37.40250        1.4073813E-18
   37.54500        1.4113423E-18
   37.68750        1.4159132E-18
   37.83000        1.4205569E-18
   37.97250        1.4247615E-18
   38.11500        1.4281390E-18
   38.25750        1.4304874E-18
   38.40000        1.4318122E-18
   38.54250        1.4323046E-18
   38.68500        1.4322837E-18
   38.82750        1.4321224E-18
   38.97000        1.4321660E-18
   39.11250        1.4326663E-18
   39.25500        1.4337301E-18
   39.39750        1.4353003E-18
   39.54000        1.4371662E-18
   39.68250        1.4390035E-18
   39.82500        1.4404443E-18
   39.96750        1.4411621E-18
   40.11000        1.4409531E-18
   40.25250        1.4397956E-18
   40.39500        1.4378713E-18
   40.53750        1.4355369E-18
   40.68000        1.4332567E-18
   40.82250        1.4315067E-18
   40.96500        1.4306758E-18
   41.10750        1.4309904E-18
   41.25000        1.4324715E-18
   41.39250        1.4349349E-18
   41.53500        1.4380296E-18
   41.67750        1.4413030E-18
   41.82000        1.4442818E-18
   41.96250        1.4465569E-18
   42.10500        1.4478513E-18
   42.24750        1.4480710E-18
   42.39000        1.4473175E-18
   42.53250        1.4458633E-18
   42.67500        1.4440952E-18
   42.81750        1.4424240E-18
   42.96000        1.4411965E-18
   43.10250        1.4406184E-18
   43.24500        1.4407122E-18
   43.38750        1.4413208E-18
   43.53000        1.4421532E-18
   43.67250        1.4428596E-18
   43.81500        1.4431198E-18
   43.95750        1.4427172E-18
   44.10000        1.4415925E-18
   44.24250        1.4398606E-18
   44.38500        1.4377956E-18
   44.52750        1.4357835E-18
   44.67000        1.4342518E-18
   44.81250        1.4335888E-18
   44.95500        1.4340623E-18
   45.09750        1.4357585E-18
   45.24000        1.4385542E-18
   45.38250        1.4421293E-18
   45.52500        1.4460261E-18
   45.66750        1.4497390E-18
   45.81000        1.4528155E-18
   45.95250        1.4549477E-18
   46.09500        1.4560285E-18
   46.23750        1.4561623E-18
   46.38000        1.4556344E-18
   46.52250        1.4548451E-18
   46.66500        1.4542249E-18
   46.80750        1.4541538E-18
   46.95000        1.4548902E-18
   47.09250        1.4565263E-18
   47.23500        1.4589710E-18
   47.37750        1.4619655E-18
   47.52000        1.4651305E-18
   47.66250        1.4680384E-18
   47.80500        1.4703013E-18
   47.94750        1.4716555E-18
   48.09000        1.4720205E-18
   48.23250        1.4715182E-18
   48.37500        1.4704454E-18
   48.51750        1.4692035E-18
   48.66000        1.4682063E-18
   48.80250        1.4677867E-18
   48.94500        1.4681250E-18
   49.08750        1.4692192E-18
   49.23000        1.4708871E-18
   49.37250        1.4728118E-18
   49.51500        1.4746035E-18
   49.65750        1.4758718E-18
   49.80000        1.4762997E-18
   49.94250        1.4757031E-18
   50.08500        1.4740756E-18
   50.22750        1.4715978E-18
   50.37000        1.4686199E-18
   50.51250        1.4656027E-18
   50.65500        1.4630329E-18
   50.79750        1.4613260E-18
   50.94000        1.4607425E-18
   51.08250        1.4613300E-18
   51.22500        1.4629205E-18
   51.36750        1.4651657E-18
   51.51000        1.4676179E-18
   51.65250        1.4698197E-18
   51.79500        1.4713945E-18
   51.93750        1.4721108E-18
   52.08000        1.4719195E-18
   52.22250        1.4709561E-18
   52.36500        1.4695125E-18
   52.50750        1.4679861E-18
   52.65000        1.4668048E-18
   52.79250        1.4663497E-18
   52.93500        1.4668757E-18
   53.07750        1.4684553E-18
   53.22000        1.4709581E-18
   53.36250        1.4740694E-18
   53.50500        1.4773529E-18
   53.64750        1.4803414E-18
   53.79000        1.4826342E-18
   53.93250        1.4839766E-18
   54.07500        1.4843092E-18
   54.21750        1.4837722E-18
   54.36000        1.4826712E-18
   54.50250        1.4814152E-18
   54.64500        1.4804374E-18
   54.78750        1.4801155E-18
   54.93000        1.4807030E-18
   55.07250        1.4822789E-18
   55.21500        1.4847260E-18
   55.35750        1.4877469E-18
   55.50000        1.4909153E-18
   55.64250        1.4937574E-18
   55.78500        1.4958477E-18
   55.92750        1.4969010E-18
   56.07000        1.4968336E-18
   56.21250        1.4957778E-18
   56.35500        1.4940513E-18
   56.49750        1.4920862E-18
   56.64000        1.4903370E-18
   56.78250        1.4891917E-18
   56.92500        1.4889003E-18
   57.06750        1.4895333E-18
   57.21000        1.4909750E-18
   57.35250        1.4929468E-18
   57.49500        1.4950592E-18
   57.63750        1.4968836E-18
   57.78000        1.4980379E-18
   57.92250        1.4982669E-18
   58.06500        1.4975056E-18
   58.20750        1.4959077E-18
   58.35000        1.4938226E-18
   58.49250        1.4917270E-18
   58.63500        1.4901249E-18
   58.77750        1.4894374E-18
   58.92000        1.4899097E-18
   59.06250        1.4915646E-18
   59.20500        1.4942034E-18
   59.34750        1.4974520E-18
   59.49000        1.5008402E-18
   59.63250        1.5038907E-18
   59.77500        1.5062050E-18
   59.91750        1.5075299E-18
   60.06000        1.5078021E-18
   60.20250        1.5071583E-18
   60.34500        1.5059163E-18
   60.48750        1.5045196E-18
   60.63000        1.5034511E-18
   60.77250        1.5031322E-18
   60.91500        1.5038267E-18
   61.05750        1.5055769E-18
   61.20000        1.5081854E-18
   61.34250        1.5112559E-18
   61.48500        1.5142792E-18
   61.62750        1.5167434E-18
   61.77000        1.5182425E-18
   61.91250        1.5185542E-18
   62.05500        1.5176790E-18
   62.19750        1.5158300E-18
   62.34000        1.5133874E-18
   62.48250        1.5108284E-18
   62.62500        1.5086441E-18
   62.76750        1.5072528E-18
   62.91000        1.5069280E-18
   63.05250        1.5077418E-18
   63.19500        1.5095484E-18
   63.33750        1.5120061E-18
   63.48000        1.5146429E-18
   63.62250        1.5169537E-18
   63.76500        1.5185098E-18
   63.90750        1.5190472E-18
   64.05000        1.5185233E-18
   64.19250        1.5171181E-18
   64.33500        1.5151894E-18
   64.47750        1.5131959E-18
   64.62000        1.5116030E-18
   64.76250        1.5108004E-18
   64.90500        1.5110381E-18
   65.04750        1.5123872E-18
   65.19000        1.5147329E-18
   65.33250        1.5177966E-18
   65.47500        1.5211844E-18
   65.61750        1.5244567E-18
   65.76000        1.5272141E-18
   65.90250        1.5291716E-18
   66.04500        1.5302171E-18
   66.18750        1.5304279E-18
   66.33000        1.5300434E-18
   66.47250        1.5293985E-18
   66.61500        1.5288397E-18
   66.75750        1.5286440E-18
   66.90000        1.5289602E-18
   67.04250        1.5297867E-18
   67.18500        1.5309806E-18
   67.32750        1.5322971E-18
   67.47000        1.5334379E-18
   67.61250        1.5341129E-18
   67.75500        1.5340934E-18
   67.89750        1.5332626E-18
   68.04000        1.5316500E-18
   68.18250        1.5294412E-18
   68.32500        1.5269611E-18
   68.46750        1.5246171E-18
   68.61000        1.5228219E-18
   68.75250        1.5219042E-18
   68.89500        1.5220354E-18
   69.03750        1.5231906E-18
   69.18000        1.5251561E-18
   69.32250        1.5275809E-18
   69.46500        1.5300519E-18
   69.60750        1.5321777E-18
   69.75000        1.5336573E-18
   69.89250        1.5343234E-18
   70.03500        1.5341641E-18
   70.17750        1.5333160E-18
   70.32000        1.5320411E-18
   70.46250        1.5306845E-18
   70.60500        1.5296147E-18
   70.74750        1.5291575E-18
   70.89000        1.5295234E-18
   71.03250        1.5307587E-18
   71.17500        1.5327237E-18
   71.31750        1.5351189E-18
   71.46000        1.5375497E-18
   71.60250        1.5396172E-18
   71.74500        1.5410072E-18
   71.88750        1.5415556E-18
   72.03000        1.5412777E-18
   72.17250        1.5403502E-18
   72.31500        1.5390683E-18
   72.45750        1.5377818E-18
   72.60000        1.5368299E-18
   72.74250        1.5364871E-18
   72.88500        1.5369181E-18
   73.02750        1.5381493E-18
   73.17000        1.5400645E-18
   73.31250        1.5424187E-18
   73.45500        1.5448840E-18
   73.59750        1.5471168E-18
   73.74000        1.5488357E-18
   73.88250        1.5498876E-18
   74.02500        1.5502861E-18
   74.16750        1.5502044E-18
   74.31000        1.5499262E-18
   74.45250        1.5497727E-18
   74.59500        1.5500176E-18
   74.73750        1.5508228E-18
   74.88000        1.5522027E-18
   75.02250        1.5540213E-18
   75.16500        1.5560220E-18
   75.30750        1.5578740E-18
   75.45000        1.5592357E-18
   75.59250        1.5598151E-18
   75.73500        1.5594333E-18
   75.87750        1.5580699E-18
   76.02000        1.5558884E-18
   76.16250        1.5532193E-18
   76.30500        1.5505110E-18
   76.44750        1.5482402E-18
   76.59000        1.5468143E-18
   76.73250        1.5464808E-18
   76.87500        1.5472727E-18
   77.01750        1.5490041E-18
   77.16000        1.5513147E-18
   77.30250        1.5537503E-18
   77.44500        1.5558534E-18
   77.58750        1.5572509E-18
   77.73000        1.5577201E-18
   77.87250        1.5572214E-18
   78.01500        1.5559087E-18
   78.15750        1.5541062E-18
   78.30000        1.5522561E-18
   78.44250        1.5508433E-18
   78.58500        1.5503026E-18
   78.72750        1.5509273E-18
   78.87000        1.5527987E-18
   79.01250        1.5557626E-18
   79.15500        1.5594562E-18
   79.29750        1.5633877E-18
   79.44000        1.5670447E-18
   79.58250        1.5700051E-18
   79.72500        1.5720197E-18
   79.86750        1.5730482E-18
   80.01000        1.5732481E-18
   80.15250        1.5729221E-18
   80.29500        1.5724469E-18
   80.43750        1.5721933E-18
   80.58000        1.5724505E-18
   80.72250        1.5733712E-18
   80.86500        1.5749320E-18
   81.00750        1.5769257E-18
   81.15000        1.5789871E-18
   81.29250        1.5806570E-18
   81.43500        1.5814749E-18
   81.57750        1.5810876E-18
   81.72000        1.5793371E-18
   81.86250        1.5763139E-18
   82.00500        1.5723480E-18
   82.14750        1.5679472E-18
   82.29000        1.5636950E-18
   82.43250        1.5601351E-18
   82.57500        1.5576751E-18
   82.71750        1.5565208E-18
   82.86000        1.5566572E-18
   83.00250        1.5578669E-18
   83.14500        1.5597796E-18
   83.28750        1.5619409E-18
   83.43000        1.5638936E-18
   83.57250        1.5652600E-18
   83.71500        1.5658135E-18
   83.85750        1.5655267E-18
   84.00000        1.5645770E-18
   84.14250        1.5633109E-18
   84.28500        1.5621640E-18
   84.42750        1.5615568E-18
   84.57000        1.5617952E-18
   84.71250        1.5629983E-18
   84.85500        1.5650746E-18
   84.99750        1.5677462E-18
   85.14000        1.5706124E-18
   85.28250        1.5732314E-18
   85.42500        1.5752035E-18
   85.56750        1.5762412E-18
   85.71000        1.5762146E-18
   85.85250        1.5751752E-18
   85.99500        1.5733486E-18
   86.13750        1.5711016E-18
   86.28000        1.5688820E-18
   86.42250        1.5671338E-18
   86.56500        1.5662128E-18
   86.70750        1.5663114E-18
   86.85000        1.5674201E-18
   86.99250        1.5693372E-18
   87.13500        1.5717212E-18
   87.27750        1.5741764E-18
   87.42000        1.5763413E-18
   87.56250        1.5779627E-18
   87.70500        1.5789366E-18
   87.84750        1.5793129E-18
   87.99000        1.5792724E-18
   88.13250        1.5790851E-18
   88.27500        1.5790584E-18
   88.41750        1.5794802E-18
   88.56000        1.5805658E-18
   88.70250        1.5824083E-18
   88.84500        1.5849435E-18
   88.98750        1.5879519E-18
   89.13000        1.5910871E-18
   89.27250        1.5939491E-18
   89.41500        1.5961739E-18
   89.55750        1.5975212E-18
   89.70000        1.5979358E-18
   89.84250        1.5975611E-18
   89.98500        1.5967036E-18
   90.12750        1.5957640E-18
   90.27000        1.5951489E-18
   90.41250        1.5951924E-18
   90.55500        1.5960966E-18
   90.69750        1.5979004E-18
   90.84000        1.6004720E-18
   90.98250        1.6035270E-18
   91.12500        1.6066672E-18
   91.26750        1.6094385E-18
   91.41000        1.6114089E-18
   91.55250        1.6122519E-18
   91.69500        1.6118196E-18
   91.83750        1.6101886E-18
   91.98000        1.6076536E-18
   92.12250        1.6046732E-18
   92.26500        1.6017737E-18
   92.40750        1.5994404E-18
   92.55000        1.5980220E-18
   92.69250        1.5976679E-18
   92.83500        1.5983171E-18
   92.97750        1.5997276E-18
   93.12000        1.6015356E-18
   93.26250        1.6033337E-18
   93.40500        1.6047448E-18
   93.54750        1.6054923E-18
   93.69000        1.6054539E-18
   93.83250        1.6046868E-18
   93.97500        1.6034250E-18
   94.11750        1.6020401E-18
   94.26000        1.6009634E-18
   94.40250        1.6005922E-18
   94.54500        1.6011934E-18
   94.68750        1.6028377E-18
   94.83000        1.6053763E-18
   94.97250        1.6084719E-18
   95.11500        1.6116726E-18
   95.25750        1.6145104E-18
   95.40000        1.6165946E-18
   95.54250        1.6176871E-18
   95.68500        1.6177402E-18
   95.82750        1.6169017E-18
   95.97000        1.6154849E-18
   96.11250        1.6139079E-18
   96.25500        1.6126200E-18
   96.39750        1.6120127E-18
   96.54000        1.6123356E-18
   96.68250        1.6136374E-18
   96.82500        1.6157426E-18
   96.96750        1.6182820E-18
   97.11000        1.6207688E-18
   97.25250        1.6227047E-18
   97.39500        1.6236940E-18
   97.53750        1.6235276E-18
   97.68000        1.6222238E-18
   97.82250        1.6200144E-18
   97.96500        1.6172875E-18
   98.10750        1.6145034E-18
   98.25000        1.6121063E-18
   98.39250        1.6104454E-18
   98.53500        1.6097153E-18
   98.67750        1.6099220E-18
   98.82000        1.6108794E-18
   98.96250        1.6122342E-18
   99.10500        1.6135270E-18
   99.24750        1.6142814E-18
   99.39000        1.6141067E-18