  -30.00000        4.8966441E-18
  -29.85750        4.9019918E-18
  -29.71500        4.9117699E-18
  -29.57250        4.9243902E-18
  -29.43000        4.9379039E-18
  -29.28750        4.9503790E-18
  -29.14500        4.9602729E-18
  -29.00250        4.9667191E-18
  -28.86000        4.9696813E-18
  -28.71750        4.9699356E-18
  -28.57500        4.9688901E-18
  -28.43250        4.9682792E-18
  -28.29000        4.9697938E-18
  -28.14750        4.9747221E-18
  -28.00500        4.9836705E-18
  -27.86250        4.9964273E-18
  -27.72000        5.0119911E-18
  -27.57750        5.0287647E-18
  -27.43500        5.0448670E-18
  -27.29250        5.0585068E-18
  -27.15000        5.0683436E-18
  -27.00750        5.0737567E-18
  -26.86500        5.0749685E-18
  -26.72250        5.0730052E-18
  -26.58000        5.0694901E-18
  -26.43750        5.0663245E-18
  -26.29500        5.0653079E-18
  -26.15250        5.0677882E-18
  -26.01000        5.0743932E-18
  -25.86750        5.0849191E-18
  -25.72500        5.0983728E-18
  -25.58250        5.1131801E-18
  -25.44000        5.1275053E-18
  -25.29750        5.1396235E-18
  -25.15500        5.1482691E-18
  -25.01250        5.1528894E-18
  -24.87000        5.1537517E-18
  -24.72750        5.1518905E-18
  -24.58500        5.1488895E-18
  -24.44250        5.1465581E-18
  -24.30000        5.1465610E-18
  -24.15750        5.1500790E-18
  -24.01500        5.1575671E-18
  -23.87250        5.1686641E-18
  -23.73000        5.1822671E-18
  -23.58750        5.1967535E-18
  -23.44500        5.2103118E-18
  -23.30250        5.2213071E-18
  -23.16000        5.2286132E-18
  -23.01750        5.2318400E-18
  -22.87500        5.2314136E-18
  -22.73250        5.2284916E-18
  -22.59000        5.2247321E-18
  -22.44750        5.2219569E-18
  -22.30500        5.2217836E-18
  -22.16250        5.2252979E-18
  -22.02000        5.2328306E-18
  -21.87750        5.2438941E-18
  -21.73500        5.2572775E-18
  -21.59250        5.2712965E-18
  -21.45000        5.2841352E-18
  -21.30750        5.2942136E-18
  -21.16500        5.3005080E-18
  -21.02250        5.3027559E-18
  -20.88000        5.3015048E-18
  -20.73750        5.2980017E-18
  -20.59500        5.2939340E-18
  -20.45250        5.2910897E-18
  -20.31000        5.2909909E-18
  -20.16750        5.2945854E-18
  -20.02500        5.3020520E-18
  -19.88250        5.3127648E-18
  -19.74000        5.3254198E-18
  -19.59750        5.3383052E-18
  -19.45500        5.3496550E-18
  -19.31250        5.3580161E-18
  -19.17000        5.3625552E-18
  -19.02750        5.3632385E-18
  -18.88500        5.3608417E-18
  -18.74250        5.3568030E-18
  -18.60000        5.3529302E-18
  -18.45750        5.3510335E-18
  -18.31500        5.3525563E-18
  -18.17250        5.3582746E-18
  -18.03000        5.3681304E-18
  -17.88750        5.3812297E-18
  -17.74500        5.3960089E-18
  -17.60250        5.4105338E-18
  -17.46000        5.4228766E-18
  -17.31750        5.4314970E-18
  -17.17500        5.4355473E-18
  -17.03250        5.4350419E-18
  -16.89000        5.4308593E-18
  -16.74750        5.4245661E-18
  -16.60500        5.4181099E-18
  -16.46250        5.4134331E-18
  -16.32000        5.4120864E-18
  -16.17750        5.4149311E-18
  -16.03500        5.4219749E-18
  -15.89250        5.4323788E-18
  -15.75000        5.4446393E-18
  -15.60750        5.4568919E-18
  -15.46500        5.4672941E-18
  -15.32250        5.4743913E-18
  -15.18000        5.4774089E-18
  -15.03750        5.4764047E-18
  -14.89500        5.4722539E-18
  -14.75250        5.4664677E-18
  -14.61000        5.4608830E-18
  -14.46750        5.4572836E-18
  -14.32500        5.4570342E-18
  -14.18250        5.4607937E-18
  -14.04000        5.4683773E-18
  -13.89750        5.4787898E-18
  -13.75500        5.4904225E-18
  -13.61250        5.5013748E-18
  -13.47000        5.5098414E-18
  -13.32750        5.5144707E-18
  -13.18500        5.5146403E-18
  -13.04250        5.5105829E-18
  -12.90000        5.5033443E-18
  -12.75750        5.4945840E-18
  -12.61500        5.4862510E-18
  -12.47250        5.4802093E-18
  -12.33000        5.4778766E-18
  -12.18750        5.4799533E-18
  -12.04500        5.4862953E-18
  -11.90250        5.4959567E-18
  -11.76000        5.5073942E-18
  -11.61750        5.5187898E-18
  -11.47500        5.5284273E-18
  -11.33250        5.5350485E-18
  -11.19000        5.5381020E-18
  -11.04750        5.5378526E-18
  -10.90500        5.5353136E-18
  -10.76250        5.5320297E-18
  -10.62000        5.5297483E-18
  -10.47750        5.5300482E-18
  -10.33500        5.5340029E-18
  -10.19250        5.5419426E-18
  -10.05000        5.5533614E-18
  -9.907500        5.5669950E-18
  -9.765000        5.5810476E-18
  -9.622500        5.5935297E-18
  -9.480000        5.6026432E-18
  -9.337500        5.6071290E-18
  -9.195000        5.6065185E-18
  -9.052500        5.6012266E-18
  -8.910000        5.5924722E-18
  -8.767500        5.5820402E-18
  -8.625000        5.5719362E-18
  -8.482500        5.5639994E-18
  -8.340000        5.5595587E-18
  -8.197500        5.5591943E-18
  -8.055000        5.5626523E-18
  -7.912500        5.5689244E-18
  -7.770000        5.5764782E-18
  -7.627500        5.5835820E-18
  -7.485000        5.5886700E-18
  -7.342500        5.5906640E-18
  -7.200000        5.5891990E-18
  -7.057500        5.5847012E-18
  -6.915000        5.5783009E-18
  -6.772500        5.5716020E-18
  -6.630000        5.5663490E-18
  -6.487500        5.5640660E-18
  -6.345000        5.5657373E-18
  -6.202500        5.5715999E-18
  -6.060000        5.5810877E-18
  -5.917500        5.5929486E-18
  -5.775000        5.6054903E-18
  -5.632500        5.6169232E-18
  -5.490000        5.6257099E-18
  -5.347500        5.6308720E-18
  -5.205000        5.6321723E-18
  -5.062500        5.6301515E-18
  -4.920000        5.6260131E-18
  -4.777500        5.6213689E-18
  -4.635000        5.6179076E-18
  -4.492500        5.6170436E-18
  -4.350000        5.6196219E-18
  -4.207500        5.6257397E-18
  -4.065000        5.6347212E-18
  -3.922500        5.6452562E-18
  -3.780000        5.6556717E-18
  -3.637500        5.6642847E-18
  -3.495000        5.6697548E-18
  -3.352500        5.6713724E-18
  -3.210000        5.6692122E-18
  -3.067500        5.6641271E-18
  -2.925000        5.6575870E-18
  -2.782500        5.6513877E-18
  -2.640000        5.6472940E-18
  -2.497500        5.6466901E-18
  -2.355000        5.6502962E-18
  -2.212500        5.6580167E-18
  -2.070000        5.6689487E-18
  -1.927500        5.6815479E-18
  -1.785000        5.6939267E-18
  -1.642500        5.7042251E-18
  -1.500000        5.7109799E-18
  -1.357500        5.7134142E-18
  -1.215000        5.7115949E-18
  -1.072500        5.7064138E-18
 -0.9300000        5.6994064E-18
 -0.7875000        5.6924341E-18
 -0.6450000        5.6873159E-18
 -0.5025000        5.6854605E-18
 -0.3600000        5.6875938E-18
 -0.2175000        5.6936202E-18
 -7.5000003E-02    5.7026448E-18
  6.7500003E-02    5.7131599E-18
  0.2100000        5.7233441E-18
  0.3525000        5.7314286E-18
  0.4950000        5.7360517E-18
  0.6375000        5.7365339E-18
  0.7800000        5.7330209E-18
  0.9225000        5.7264589E-18
   1.065000        5.7184046E-18
   1.207500        5.7107156E-18
   1.350000        5.7051710E-18
   1.492500        5.7031134E-18
   1.635000        5.7051830E-18
   1.777500        5.7111949E-18
   1.920000        5.7201876E-18
   2.062500        5.7306246E-18
   2.205000        5.7407124E-18
   2.347500        5.7487593E-18
   2.490000        5.7535151E-18
   2.632500        5.7544151E-18
   2.775000        5.7516904E-18
   2.917500        5.7463203E-18
   3.060000        5.7398365E-18
   3.202500        5.7340135E-18
   3.345000        5.7305125E-18
   3.487500        5.7305385E-18
   3.630000        5.7345959E-18
   3.772500        5.7423817E-18
   3.915000        5.7528517E-18
   4.057500        5.7644376E-18
   4.200000        5.7753709E-18
   4.342500        5.7840493E-18
   4.485000        5.7893631E-18
   4.627500        5.7909169E-18
   4.770000        5.7891017E-18
   4.912500        5.7850071E-18
   5.055000        5.7801979E-18
   5.197500        5.7763912E-18
   5.340000        5.7751029E-18
   5.482500        5.7773392E-18
   5.625000        5.7833784E-18
   5.767500        5.7926995E-18
   5.910000        5.8040724E-18
   6.052500        5.8157927E-18
   6.195000        5.8260204E-18
   6.337500        5.8331507E-18
   6.480000        5.8361455E-18
   6.622500        5.8347501E-18
   6.765000        5.8295525E-18
   6.907500        5.8218684E-18
   7.050000        5.8134890E-18
   7.192500        5.8063281E-18
   7.335000        5.8020553E-18
   7.477500        5.8017795E-18
   7.620000        5.8058442E-18
   7.762500        5.8137744E-18
   7.905000        5.8243780E-18
   8.047500        5.8359859E-18
   8.190000        5.8467839E-18
   8.332500        5.8551711E-18
   8.475000        5.8600759E-18
   8.617500        5.8611665E-18
   8.760000        5.8589054E-18
   8.902500        5.8544448E-18
   9.045000        5.8493734E-18
   9.187500        5.8453764E-18
   9.330000        5.8438751E-18
   9.472500        5.8457288E-18
   9.615000        5.8510559E-18
   9.757500        5.8592139E-18
   9.900000        5.8689329E-18
   10.04250        5.8785749E-18
   10.18500        5.8864704E-18
   10.32750        5.8912502E-18
   10.47000        5.8921295E-18
   10.61250        5.8890698E-18
   10.75500        5.8828010E-18
   10.89750        5.8746843E-18
   11.04000        5.8664522E-18
   11.18250        5.8598629E-18
   11.32500        5.8563490E-18
   11.46750        5.8567278E-18
   11.61000        5.8610370E-18
   11.75250        5.8685371E-18
   11.89500        5.8778702E-18
   12.03750        5.8873530E-18
   12.18000        5.8953295E-18
   12.32250        5.9005142E-18
   12.46500        5.9022525E-18
   12.60750        5.9006536E-18
   12.75000        5.8965624E-18
   12.89250        5.8913913E-18
   13.03500        5.8868335E-18
   13.17750        5.8845186E-18
   13.32000        5.8856792E-18
   13.46250        5.8908838E-18
   13.60500        5.8999034E-18
   13.74750        5.9117325E-18
   13.89000        5.9247750E-18
   14.03250        5.9371534E-18
   14.17500        5.9470828E-18
   14.31750        5.9532350E-18
   14.46000        5.9550068E-18
   14.60250        5.9526411E-18
   14.74500        5.9471796E-18
   14.88750        5.9402503E-18
   15.03000        5.9337450E-18
   15.17250        5.9294465E-18
   15.31500        5.9286880E-18
   15.45750        5.9320956E-18
   15.60000        5.9394720E-18
   15.74250        5.9498365E-18
   15.88500        5.9616185E-18
   16.02750        5.9729628E-18
   16.17000        5.9821007E-18
   16.31250        5.9877011E-18
   16.45500        5.9891433E-18
   16.59750        5.9866403E-18
   16.74000        5.9811987E-18
   16.88250        5.9744075E-18
   17.02500        5.9681077E-18
   17.16750        5.9640169E-18
   17.31000        5.9633787E-18
   17.45250        5.9667193E-18
   17.59500        5.9737503E-18
   17.73750        5.9834383E-18
   17.88000        5.9942139E-18
   18.02250        6.0042894E-18
   18.16500        6.0120099E-18
   18.30750        6.0161826E-18
   18.45000        6.0163129E-18
   18.59250        6.0127076E-18
   18.73500        6.0064186E-18
   18.87750        5.9990356E-18
   19.02000        5.9923668E-18
   19.16250        5.9880713E-18
   19.30500        5.9873210E-18
   19.44750        5.9905611E-18
   19.59000        5.9974292E-18
   19.73250        6.0068367E-18
   19.87500        6.0172046E-18
   20.01750        6.0267929E-18
   20.16000        6.0340518E-18
   20.30250        6.0379346E-18
   20.44500        6.0380955E-18
   20.58750        6.0349534E-18
   20.73000        6.0296032E-18
   20.87250        6.0235925E-18
   21.01500        6.0186120E-18
   21.15750        6.0161549E-18
   21.30000        6.0172058E-18
   21.44250        6.0220345E-18
   21.58500        6.0301293E-18
   21.72750        6.0402953E-18
   21.87000        6.0508981E-18
   22.01250        6.0602048E-18
   22.15500        6.0667403E-18
   22.29750        6.0695933E-18
   22.44000        6.0686019E-18
   22.58250        6.0643791E-18
   22.72500        6.0581798E-18
   22.86750        6.0516459E-18
   23.01000        6.0464752E-18
   23.15250        6.0440871E-18
   23.29500        6.0453411E-18
   23.43750        6.0503667E-18
   23.58000        6.0585318E-18
   23.72250        6.0685593E-18
   23.86500        6.0787758E-18
   24.00750        6.0874451E-18
   24.15000        6.0931170E-18
   24.29250        6.0949335E-18
   24.43500        6.0928048E-18
   24.57750        6.0874351E-18
   24.72000        6.0801762E-18
   24.86250        6.0727510E-18
   25.00500        6.0669008E-18
   25.14750        6.0640383E-18
   25.29000        6.0649722E-18
   25.43250        6.0697608E-18
   25.57500        6.0777141E-18
   25.71750        6.0875443E-18
   25.86000        6.0976239E-18
   26.00250        6.1063110E-18
   26.14500        6.1122745E-18
   26.28750        6.1147586E-18
   26.43000        6.1137395E-18
   26.57250        6.1099357E-18
   26.71500        6.1046641E-18
   26.85750        6.0995699E-18
   27.00000        6.0962793E-18
   27.14250        6.0960581E-18
   27.28500        6.0995422E-18
   27.42750        6.1066030E-18
   27.57000        6.1163761E-18
   27.71250        6.1274438E-18
   27.85500        6.1381256E-18
   27.99750        6.1468197E-18
   28.14000        6.1523196E-18
   28.28250        6.1540459E-18
   28.42500        6.1521595E-18
   28.56750        6.1475273E-18
   28.71000        6.1415501E-18
   28.85250        6.1358897E-18
   28.99500        6.1321351E-18
   29.13750        6.1314800E-18
   29.28000        6.1344715E-18
   29.42250        6.1408908E-18
   29.56500        6.1497913E-18
   29.70750        6.1596927E-18
   29.85000        6.1688905E-18
   29.99250        6.1758136E-18
   30.13500        6.1793514E-18
   30.27750        6.1790760E-18
   30.42000        6.1753272E-18
   30.56250        6.1691337E-18
   30.70500        6.1620034E-18
   30.84750        6.1556171E-18
   30.99000        6.1515003E-18
   31.13250        6.1507190E-18
   31.27500        6.1536695E-18
   31.41750        6.1599917E-18
   31.56000        6.1686291E-18
   31.70250        6.1780366E-18
   31.84500        6.1864884E-18
   31.98750        6.1924329E-18
   32.13000        6.1948214E-18
   32.27250        6.1933333E-18
   32.41500        6.1884558E-18
   32.55750        6.1813855E-18
   32.70000        6.1737870E-18
   32.84250        6.1674545E-18
   32.98500        6.1639522E-18
   33.12750        6.1643083E-18
   33.27000        6.1688156E-18
   33.41250        6.1769828E-18
   33.55500        6.1876266E-18
   33.69750        6.1990958E-18
   33.84000        6.2095828E-18
   33.98250        6.2174663E-18
   34.12500        6.2216195E-18
   34.26750        6.2216357E-18
   34.41000        6.2179084E-18
   34.55250        6.2115561E-18
   34.69500        6.2041954E-18
   34.83750        6.1976102E-18
   34.98000        6.1933887E-18
   35.12250        6.1926008E-18
   35.26500        6.1955956E-18
   35.40750        6.2019471E-18
   35.55000        6.2105663E-18
   35.69250        6.2199379E-18
   35.83500        6.2284367E-18
   35.97750        6.2346501E-18
   36.12000        6.2376565E-18
   36.26250        6.2372011E-18
   36.40500        6.2337448E-18
   36.54750        6.2283743E-18
   36.69000        6.2225902E-18
   36.83250        6.2180081E-18
   36.97500        6.2160274E-18
   37.11750        6.2175411E-18
   37.26000        6.2227404E-18
   37.40250        6.2310726E-18
   37.54500        6.2413540E-18
   37.68750        6.2520234E-18
   37.83000        6.2614719E-18
   37.97250        6.2683755E-18
   38.11500        6.2719655E-18
   38.25750        6.2721731E-18
   38.40000        6.2696274E-18
   38.54250        6.2655168E-18
   38.68500        6.2613412E-18
   38.82750        6.2586082E-18
   38.97000        6.2585283E-18
   39.11250        6.2617639E-18
   39.25500        6.2682800E-18
   39.39750        6.2773355E-18
   39.54000        6.2876132E-18
   39.68250        6.2974778E-18
   39.82500        6.3053108E-18
   39.96750        6.3098495E-18
   40.11000        6.3104579E-18
   40.25250        6.3072675E-18
   40.39500        6.3011496E-18
   40.53750        6.2935354E-18
   40.68000        6.2861206E-18
   40.82250        6.2805218E-18
   40.96500        6.2779551E-18
   41.10750        6.2790015E-18
   41.25000        6.2835034E-18
   41.39250        6.2905973E-18
   41.53500        6.2988828E-18
   41.67750        6.3066947E-18
   41.82000        6.3124311E-18
   41.96250        6.3148763E-18
   42.10500        6.3134548E-18
   42.24750        6.3083676E-18
   42.39000        6.3005665E-18
   42.53250        6.2915721E-18
   42.67500        6.2831734E-18
   42.81750        6.2770617E-18
   42.96000        6.2744966E-18
   43.10250        6.2760625E-18
   43.24500        6.2815699E-18
   43.38750        6.2901200E-18
   43.53000        6.3003039E-18
   43.67250        6.3104877E-18
   43.81500        6.3191379E-18
   43.95750        6.3251073E-18
   44.10000        6.3278481E-18
   44.24250        6.3275065E-18
   44.38500        6.3248848E-18
   44.52750        6.3212750E-18
   44.67000        6.3181904E-18
   44.81250        6.3170435E-18
   44.95500        6.3188401E-18
   45.09750        6.3239513E-18
   45.24000        6.3320246E-18
   45.38250        6.3420517E-18
   45.52500        6.3525784E-18
   45.66750        6.3620128E-18
   45.81000        6.3689524E-18
   45.95250        6.3724654E-18
   46.09500        6.3722682E-18
   46.23750        6.3687650E-18
   46.38000        6.3629636E-18
   46.52250        6.3562721E-18
   46.66500        6.3502333E-18
   46.80750        6.3462277E-18
   46.95000        6.3452127E-18
   47.09250        6.3475355E-18
   47.23500        6.3528542E-18
   47.37750        6.3602095E-18
   47.52000        6.3682146E-18
   47.66250        6.3753502E-18
   47.80500        6.3802943E-18
   47.94750        6.3822080E-18
   48.09000        6.3809229E-18
   48.23250        6.3769756E-18
   48.37500        6.3714931E-18
   48.51750        6.3659555E-18
   48.66000        6.3618875E-18
   48.80250        6.3605561E-18
   48.94500        6.3627175E-18
   49.08750        6.3684668E-18
   49.23000        6.3772093E-18
   49.37250        6.3877592E-18
   49.51500        6.3985460E-18
   49.65750        6.4079023E-18
   49.80000        6.4143799E-18
   49.94250        6.4170368E-18
   50.08500        6.4156352E-18
   50.22750        6.4107014E-18
   50.37000        6.4034276E-18
   50.51250        6.3954300E-18
   50.65500        6.3884242E-18
   50.79750        6.3838809E-18
   50.94000        6.3827407E-18
   51.08250        6.3852479E-18
   51.22500        6.3909298E-18
   51.36750        6.3987156E-18
   51.51000        6.4071665E-18
   51.65250        6.4147608E-18
   51.79500        6.4201913E-18
   51.93750        6.4226170E-18
   52.08000        6.4218316E-18
   52.22250        6.4183099E-18
   52.36500        6.4131218E-18
   52.50750        6.4077228E-18
   52.65000        6.4036601E-18
   52.79250        6.4022410E-18
   52.93500        6.4042585E-18
   53.07750        6.4098180E-18
   53.22000        6.4183173E-18
   53.36250        6.4285818E-18
   53.50500        6.4391184E-18
   53.64750        6.4484238E-18
   53.79000        6.4552832E-18
   53.93250        6.4589956E-18
   54.07500        6.4594890E-18
   54.21750        6.4573106E-18
   54.36000        6.4535023E-18
   54.50250        6.4493845E-18
   54.64500        6.4462901E-18
   54.78750        6.4452867E-18
   54.93000        6.4469506E-18
   55.07250        6.4512292E-18
   55.21500        6.4574380E-18
   55.35750        6.4643970E-18
   55.50000        6.4706844E-18
   55.64250        6.4749535E-18
   55.78500        6.4762365E-18
   55.92750        6.4741685E-18
   56.07000        6.4690756E-18
   56.21250        6.4619076E-18
   56.35500        6.4540478E-18
   56.49750        6.4470362E-18
   56.64000        6.4422733E-18
   56.78250        6.4407542E-18
   56.92500        6.4428891E-18
   57.06750        6.4484229E-18
   57.21000        6.4564789E-18
   57.35250        6.4657152E-18
   57.49500        6.4745730E-18
   57.63750        6.4815859E-18
   57.78000        6.4856738E-18
   57.92250        6.4863748E-18
   58.06500        6.4839528E-18
   58.20750        6.4793421E-18
   58.35000        6.4739535E-18
   58.49250        6.4693643E-18
   58.63500        6.4669874E-18
   58.77750        6.4677753E-18
   58.92000        6.4720356E-18
   59.06250        6.4793777E-18
   59.20500        6.4888009E-18
   59.34750        6.4988950E-18
   59.49000        6.5081073E-18
   59.63250        6.5150321E-18
   59.77500        6.5186775E-18
   59.91750        6.5186597E-18
   60.06000        6.5152926E-18
   60.20250        6.5095404E-18
   60.34500        6.5028432E-18
   60.48750        6.4968291E-18
   60.63000        6.4929819E-18
   60.77250        6.4923276E-18
   60.91500        6.4952215E-18
   61.05750        6.5012814E-18
   61.20000        6.5094809E-18
   61.34250        6.5183834E-18
   61.48500        6.5264484E-18
   61.62750        6.5323458E-18
   61.77000        6.5352182E-18
   61.91250        6.5348381E-18
   62.05500        6.5316456E-18
   62.19750        6.5266631E-18
   62.34000        6.5213013E-18
   62.48250        6.5170897E-18
   62.62500        6.5153721E-18
   62.76750        6.5170256E-18
   62.91000        6.5222612E-18
   63.05250        6.5305545E-18
   63.19500        6.5407301E-18
   63.33750        6.5511968E-18
   63.48000        6.5602760E-18
   63.62250        6.5665510E-18
   63.76500        6.5691578E-18
   63.90750        6.5679501E-18
   64.05000        6.5635098E-18
   64.19250        6.5570078E-18
   64.33500        6.5499594E-18
   64.47750        6.5439218E-18
   64.62000        6.5401970E-18
   64.76250        6.5395902E-18
   64.90500        6.5422567E-18
   65.04750        6.5476660E-18
   65.19000        6.5547037E-18
   65.33250        6.5618852E-18
   65.47500        6.5676614E-18
   65.61750        6.5707485E-18
   65.76000        6.5704205E-18
   65.90250        6.5666796E-18
   66.04500        6.5602739E-18
   66.18750        6.5525456E-18
   66.33000        6.5451468E-18
   66.47250        6.5396982E-18
   66.61500        6.5374569E-18
   66.75750        6.5390778E-18
   66.90000        6.5444963E-18
   67.04250        6.5529567E-18
   67.18500        6.5631616E-18
   67.32750        6.5735125E-18
   67.47000        6.5824026E-18
   67.61250        6.5885134E-18
   67.75500        6.5910669E-18
   67.89750        6.5899825E-18
   68.04000        6.5858995E-18
   68.18250        6.5800588E-18
   68.32500        6.5740456E-18
   68.46750        6.5694585E-18
   68.61000        6.5675680E-18
   68.75250        6.5690515E-18
   68.89500        6.5738641E-18
   69.03750        6.5812698E-18
   69.18000        6.5900210E-18
   69.32250        6.5986261E-18
   69.46500        6.6056580E-18
   69.60750        6.6100284E-18
   69.75000        6.6111852E-18
   69.89250        6.6092111E-18
   70.03500        6.6048064E-18
   70.17750        6.5991601E-18
   70.32000        6.5937292E-18
   70.46250        6.5899556E-18
   70.60500        6.5889721E-18
   70.74750        6.5913622E-18
   70.89000        6.5970197E-18
   71.03250        6.6051642E-18
   71.17500        6.6145010E-18
   71.31750        6.6235028E-18
   71.46000        6.6307307E-18
   71.60250        6.6351358E-18
   71.74500        6.6362546E-18
   71.88750        6.6342809E-18
   72.03000        6.6300011E-18
   72.17250        6.6246195E-18
   72.31500        6.6195182E-18
   72.45750        6.6159977E-18
   72.60000        6.6150304E-18
   72.74250        6.6170776E-18
   72.88500        6.6219915E-18
   73.02750        6.6290296E-18
   73.17000        6.6369891E-18
   73.31250        6.6444503E-18
   73.45500        6.6500730E-18
   73.59750        6.6528900E-18
   73.74000        6.6525231E-18
   73.88250        6.6492649E-18
   74.02500        6.6440065E-18
   74.16750        6.6380376E-18
   74.31000        6.6327626E-18
   74.45250        6.6294101E-18
   74.59500        6.6287959E-18
   74.73750        6.6311749E-18
   74.88000        6.6362083E-18
   75.02250        6.6430354E-18
   75.16500        6.6504366E-18
   75.30750        6.6570615E-18
   75.45000        6.6616858E-18
   75.59250        6.6634605E-18
   75.73500        6.6621023E-18
   75.87750        6.6579743E-18
   76.02000        6.6520372E-18
   76.16250        6.6456567E-18
   76.30500        6.6403202E-18
   76.44750        6.6373150E-18
   76.59000        6.6374573E-18
   76.73250        6.6409273E-18
   76.87500        6.6472495E-18
   77.01750        6.6554125E-18
   77.16000        6.6640880E-18
   77.30250        6.6718978E-18
   77.44500        6.6776744E-18
   77.58750        6.6806717E-18
   77.73000        6.6807011E-18
   77.87250        6.6781649E-18
   78.01500        6.6739910E-18
   78.15750        6.6694605E-18
   78.30000        6.6659619E-18
   78.44250        6.6646980E-18
   78.58500        6.6664297E-18
   78.72750        6.6712935E-18
   78.87000        6.6787638E-18
   79.01250        6.6877623E-18
   79.15500        6.6968956E-18
   79.29750        6.7047563E-18
   79.44000        6.7102215E-18
   79.58250        6.7126670E-18
   79.72500        6.7120793E-18
   79.86750        6.7090266E-18
   80.01000        6.7045363E-18
   80.15250        6.6998854E-18
   80.29500        6.6963604E-18
   80.43750        6.6950138E-18
   80.58000        6.6964560E-18
   80.72250        6.7007263E-18
   80.86500        6.7072627E-18
   81.00750        6.7149964E-18
   81.15000        6.7225643E-18
   81.29250        6.7285927E-18
   81.43500        6.7319987E-18
   81.57750        6.7322261E-18
   81.72000        6.7293637E-18
   81.86250        6.7241123E-18
   82.00500        6.7176202E-18
   82.14750        6.7112261E-18
   82.29000        6.7061824E-18
   82.43250        6.7034113E-18
   82.57500        6.7033397E-18
   82.71750        6.7058337E-18
   82.86000        6.7102326E-18
   83.00250        6.7154757E-18
   83.14500        6.7203015E-18
   83.28750        6.7234957E-18
   83.43000        6.7241409E-18
   83.57250        6.7218276E-18
   83.71500        6.7167645E-18
   83.85750        6.7097628E-18
   84.00000        6.7020795E-18
   84.14250        6.6951527E-18
   84.28500        6.6902939E-18
   84.42750        6.6884112E-18
   84.57000        6.6898273E-18
   84.71250        6.6942317E-18
   84.85500        6.7007668E-18
   84.99750        6.7082123E-18
   85.14000        6.7152267E-18
   85.28250        6.7205960E-18
   85.42500        6.7234502E-18
   85.56750        6.7234191E-18
   85.71000        6.7207048E-18
   85.85250        6.7160548E-18
   85.99500        6.7106326E-18
   86.13750        6.7057936E-18
   86.28000        6.7028066E-18
   86.42250        6.7025808E-18
   86.56500        6.7054594E-18
   86.70750        6.7111380E-18
   86.85000        6.7187307E-18
   86.99250        6.7269677E-18
   87.13500        6.7344711E-18
   87.27750        6.7400430E-18
   87.42000        6.7428939E-18
   87.56250        6.7427839E-18
   87.70500        6.7400434E-18
   87.84750        6.7354976E-18
   87.99000        6.7303071E-18
   88.13250        6.7257605E-18
   88.27500        6.7230403E-18
   88.41750        6.7230043E-18
   88.56000        6.7260082E-18
   88.70250        6.7318278E-18
   88.84500        6.7396881E-18
   88.98750        6.7484190E-18
   89.13000        6.7567086E-18
   89.27250        6.7633976E-18
   89.41500        6.7677329E-18
   89.55750        6.7695312E-18
   89.70000        6.7692032E-18
   89.84250        6.7676435E-18
   89.98500        6.7660218E-18
   90.12750        6.7655280E-18
   90.27000        6.7671298E-18
   90.41250        6.7713824E-18
   90.55500        6.7783183E-18
   90.69750        6.7874284E-18
   90.84000        6.7977372E-18
   90.98250        6.8079649E-18
   91.12500        6.8167582E-18
   91.26750        6.8229530E-18
   91.41000        6.8258204E-18
   91.55250        6.8252360E-18
   91.69500        6.8217238E-18
   91.83750        6.8163599E-18
   91.98000        6.8105428E-18
   92.12250        6.8057000E-18
   92.26500        6.8029890E-18
   92.40750        6.8030692E-18
   92.55000        6.8059945E-18
   92.69250        6.8112335E-18
   92.83500        6.8177996E-18
   92.97750        6.8244605E-18
   93.12000        6.8299840E-18
   93.26250        6.8333717E-18
   93.40500        6.8340579E-18
   93.54750        6.8320284E-18
   93.69000        6.8278474E-18
   93.83250        6.8225634E-18
   93.97500        6.8175068E-18
   94.11750        6.8140144E-18
   94.26000        6.8131318E-18
   94.40250        6.8153735E-18
   94.54500        6.8205972E-18
   94.68750        6.8280285E-18
   94.83000        6.8364261E-18
   94.97250        6.8443434E-18
   95.11500        6.8504249E-18
   95.25750        6.8536596E-18
   95.40000        6.8535615E-18
   95.54250        6.8502330E-18
   95.68500        6.8443302E-18
   95.82750        6.8369331E-18
   95.97000        6.8293450E-18
   96.11250        6.8228562E-18
   96.25500        6.8184982E-18
   96.39750        6.8168397E-18
   96.54000        6.8178658E-18
   96.68250        6.8209768E-18
   96.82500        6.8251206E-18
   96.96750        6.8290323E-18
   97.11000        6.8315230E-18
   97.25250        6.8317550E-18
   97.39500        6.8294252E-18
   97.53750        6.8248174E-18
   97.68000        6.8187261E-18
   97.82250        6.8122728E-18
   97.96500        6.8066716E-18
   98.10750        6.8029910E-18
   98.25000        6.8019558E-18
   98.39250        6.8038186E-18
   98.53500        6.8083065E-18
   98.67750        6.8146601E-18
   98.82000        6.8217573E-18
   98.96250        6.8283119E-18
   99.10500        6.8331223E-18
   99.24750        6.8353164E-18
   99.39000        6.8345442E-18