  -30.00000        9.7844703E-19
  -29.85750        9.8019982E-19
  -29.71500        9.8339822E-19
  -29.57250        9.8751437E-19
  -29.43000        9.9190650E-19
  -29.28750        9.9594883E-19
  -29.14500        9.9914960E-19
  -29.00250        1.0012399E-18
  -28.86000        1.0022160E-18
  -28.71750        1.0023277E-18
  -28.57500        1.0020214E-18
  -28.43250        1.0018471E-18
  -28.29000        1.0023451E-18
  -28.14750        1.0039344E-18
  -28.00500        1.0068204E-18
  -27.86250        1.0109460E-18
  -27.72000        1.0159928E-18
  -27.57750        1.0214395E-18
  -27.43500        1.0266651E-18
  -27.29250        1.0310784E-18
  -27.15000        1.0342393E-18
  -27.00750        1.0359524E-18
  -26.86500        1.0363035E-18
  -26.72250        1.0356391E-18
  -26.58000        1.0344932E-18
  -26.43750        1.0334790E-18
  -26.29500        1.0331682E-18
  -26.15250        1.0339820E-18
  -26.01000        1.0361153E-18
  -25.86750        1.0395016E-18
  -25.72500        1.0438266E-18
  -25.58250        1.0485893E-18
  -25.44000        1.0532002E-18
  -25.29750        1.0570977E-18
  -25.15500        1.0598665E-18
  -25.01250        1.0613214E-18
  -24.87000        1.0615517E-18
  -24.72750        1.0609009E-18
  -24.58500        1.0598950E-18
  -24.44250        1.0591287E-18
  -24.30000        1.0591389E-18
  -24.15750        1.0602954E-18
  -24.01500        1.0627261E-18
  -23.87250        1.0662969E-18
  -23.73000        1.0706441E-18
  -23.58750        1.0752504E-18
  -23.44500        1.0795474E-18
  -23.30250        1.0830276E-18
  -23.16000        1.0853439E-18
  -23.01750        1.0863793E-18
  -22.87500        1.0862714E-18
  -22.73250        1.0853891E-18
  -22.59000        1.0842619E-18
  -22.44750        1.0834706E-18
  -22.30500        1.0835258E-18
  -22.16250        1.0847561E-18
  -22.02000        1.0872397E-18
  -21.87750        1.0907859E-18
  -21.73500        1.0949786E-18
  -21.59250        1.0992681E-18
  -21.45000        1.1030885E-18
  -21.30750        1.1059738E-18
  -21.16500        1.1076545E-18
  -21.02250        1.1081074E-18
  -20.88000        1.1075613E-18
  -20.73750        1.1064502E-18
  -20.59500        1.1053293E-18
  -20.45250        1.1047666E-18
  -20.31000        1.1052327E-18
  -20.16750        1.1069990E-18
  -20.02500        1.1100804E-18
  -19.88250        1.1142245E-18
  -19.74000        1.1189591E-18
  -19.59750        1.1236868E-18
  -19.45500        1.1278151E-18
  -19.31250        1.1308824E-18
  -19.17000        1.1326566E-18
  -19.02750        1.1331879E-18
  -18.88500        1.1327966E-18
  -18.74250        1.1320054E-18
  -18.60000        1.1314338E-18
  -18.45750        1.1316724E-18
  -18.31500        1.1331670E-18
  -18.17250        1.1361280E-18
  -18.03000        1.1404851E-18
  -17.88750        1.1458919E-18
  -17.74500        1.1517827E-18
  -17.60250        1.1574718E-18
  -17.46000        1.1622786E-18
  -17.31750        1.1656620E-18
  -17.17500        1.1673241E-18
  -17.03250        1.1672757E-18
  -16.89000        1.1658353E-18
  -16.74750        1.1635658E-18
  -16.60500        1.1611620E-18
  -16.46250        1.1593112E-18
  -16.32000        1.1585618E-18
  -16.17750        1.1592218E-18
  -16.03500        1.1613113E-18
  -15.89250        1.1645708E-18
  -15.75000        1.1685197E-18
  -15.60750        1.1725576E-18
  -15.46500        1.1760796E-18
  -15.32250        1.1785927E-18
  -15.18000        1.1798088E-18
  -15.03750        1.1797002E-18
  -14.89500        1.1785035E-18
  -14.75250        1.1766715E-18
  -14.61000        1.1747752E-18
  -14.46750        1.1733849E-18
  -14.32500        1.1729401E-18
  -14.18250        1.1736573E-18
  -14.04000        1.1754800E-18
  -13.89750        1.1780918E-18
  -13.75500        1.1809886E-18
  -13.61250        1.1835847E-18
  -13.47000        1.1853381E-18
  -13.32750        1.1858640E-18
  -13.18500        1.1850112E-18
  -13.04250        1.1828989E-18
  -12.90000        1.1798985E-18
  -12.75750        1.1765700E-18
  -12.61500        1.1735627E-18
  -12.47250        1.1714985E-18
  -12.33000        1.1708519E-18
  -12.18750        1.1718593E-18
  -12.04500        1.1744714E-18
  -11.90250        1.1783598E-18
  -11.76000        1.1829836E-18
  -11.61750        1.1876981E-18
  -11.47500        1.1918845E-18
  -11.33250        1.1950721E-18
  -11.19000        1.1970244E-18
  -11.04750        1.1977744E-18
  -10.90500        1.1976036E-18
  -10.76250        1.1969730E-18
  -10.62000        1.1964208E-18
  -10.47750        1.1964507E-18
  -10.33500        1.1974297E-18
  -10.19250        1.1995139E-18
  -10.05000        1.2026118E-18
  -9.907500        1.2063983E-18
  -9.765000        1.2103730E-18
  -9.622500        1.2139571E-18
  -9.480000        1.2166087E-18
  -9.337500        1.2179341E-18
  -9.195000        1.2177718E-18
  -9.052500        1.2162265E-18
  -8.910000        1.2136446E-18
  -8.767500        1.2105426E-18
  -8.625000        1.2074983E-18
  -8.482500        1.2050343E-18
  -8.340000        1.2035216E-18
  -8.197500        1.2031148E-18
  -8.055000        1.2037360E-18
  -7.912500        1.2051028E-18
  -7.770000        1.2067946E-18
  -7.627500        1.2083428E-18
  -7.485000        1.2093277E-18
  -7.342500        1.2094685E-18
  -7.200000        1.2086864E-18
  -7.057500        1.2071270E-18
  -6.915000        1.2051386E-18
  -6.772500        1.2032001E-18
  -6.630000        1.2018222E-18
  -6.487500        1.2014343E-18
  -6.345000        1.2022881E-18
  -6.202500        1.2044007E-18
  -6.060000        1.2075501E-18
  -5.917500        1.2113227E-18
  -5.775000        1.2152001E-18
  -5.632500        1.2186666E-18
  -5.490000        1.2213103E-18
  -5.347500        1.2229012E-18
  -5.205000        1.2234312E-18
  -5.062500        1.2231126E-18
  -4.920000        1.2223340E-18
  -4.777500        1.2215818E-18
  -4.635000        1.2213452E-18
  -4.492500        1.2220089E-18
  -4.350000        1.2237684E-18
  -4.207500        1.2265758E-18
  -4.065000        1.2301370E-18
  -3.922500        1.2339630E-18
  -3.780000        1.2374651E-18
  -3.637500        1.2400747E-18
  -3.495000        1.2413646E-18
  -3.352500        1.2411357E-18
  -3.210000        1.2394608E-18
  -3.067500        1.2366707E-18
  -2.925000        1.2332901E-18
  -2.782500        1.2299383E-18
  -2.640000        1.2272162E-18
  -2.497500        1.2255993E-18
  -2.355000        1.2253558E-18
  -2.212500        1.2264996E-18
  -2.070000        1.2287954E-18
  -1.927500        1.2318050E-18
  -1.785000        1.2349779E-18
  -1.642500        1.2377638E-18
  -1.500000        1.2397305E-18
  -1.357500        1.2406554E-18
  -1.215000        1.2405726E-18
  -1.072500        1.2397653E-18
 -0.9300000        1.2386997E-18
 -0.7875000        1.2379207E-18
 -0.6450000        1.2379302E-18
 -0.5025000        1.2390777E-18
 -0.3600000        1.2414844E-18
 -0.2175000        1.2450141E-18
 -7.5000003E-02    1.2492978E-18
  6.7500003E-02    1.2538006E-18
  0.2100000        1.2579228E-18
  0.3525000        1.2611130E-18
  0.4950000        1.2629761E-18
  0.6375000        1.2633543E-18
  0.7800000        1.2623678E-18
  0.9225000        1.2603945E-18
   1.065000        1.2580047E-18
   1.207500        1.2558459E-18
   1.350000        1.2545108E-18
   1.492500        1.2544166E-18
   1.635000        1.2557169E-18
   1.777500        1.2582714E-18
   1.920000        1.2616790E-18
   2.062500        1.2653584E-18
   2.205000        1.2686685E-18
   2.347500        1.2710296E-18
   2.490000        1.2720363E-18
   2.632500        1.2715308E-18
   2.775000        1.2696344E-18
   2.917500        1.2667264E-18
   3.060000        1.2633785E-18
   3.202500        1.2602527E-18
   3.345000        1.2579756E-18
   3.487500        1.2570217E-18
   3.630000        1.2576217E-18
   3.772500        1.2597184E-18
   3.915000        1.2629834E-18
   4.057500        1.2668880E-18
   4.200000        1.2708184E-18
   4.342500        1.2742014E-18
   4.485000        1.2766150E-18
   4.627500        1.2778617E-18
   4.770000        1.2779918E-18
   4.912500        1.2772713E-18
   5.055000        1.2761161E-18
   5.197500        1.2749945E-18
   5.340000        1.2743312E-18
   5.482500        1.2744197E-18
   5.625000        1.2753602E-18
   5.767500        1.2770357E-18
   5.910000        1.2791324E-18
   6.052500        1.2812031E-18
   6.195000        1.2827631E-18
   6.337500        1.2833968E-18
   6.480000        1.2828609E-18
   6.622500        1.2811480E-18
   6.765000        1.2785020E-18
   6.907500        1.2753738E-18
   7.050000        1.2723365E-18
   7.192500        1.2699691E-18
   7.335000        1.2687466E-18
   7.477500        1.2689490E-18
   7.620000        1.2706168E-18
   7.762500        1.2735469E-18
   7.905000        1.2773367E-18
   8.047500        1.2814617E-18
   8.190000        1.2853726E-18
   8.332500        1.2885963E-18
   8.475000        1.2908256E-18
   8.617500        1.2919774E-18
   8.760000        1.2922086E-18
   8.902500        1.2918803E-18
   9.045000        1.2914792E-18
   9.187500        1.2915078E-18
   9.330000        1.2923698E-18
   9.472500        1.2942761E-18
   9.615000        1.2971959E-18
   9.757500        1.3008572E-18
   9.900000        1.3048017E-18
   10.04250        1.3084743E-18
   10.18500        1.3113335E-18
   10.32750        1.3129535E-18
   10.47000        1.3131041E-18
   10.61250        1.3117952E-18
   10.75500        1.3092803E-18
   10.89750        1.3060108E-18
   11.04000        1.3025589E-18
   11.18250        1.2995129E-18
   11.32500        1.2973668E-18
   11.46750        1.2964278E-18
   11.61000        1.2967594E-18
   11.75250        1.2981747E-18
   11.89500        1.3002876E-18
   12.03750        1.3026006E-18
   12.18000        1.3046183E-18
   12.32250        1.3059522E-18
   12.46500        1.3064006E-18
   12.60750        1.3059833E-18
   12.75000        1.3049331E-18
   12.89250        1.3036410E-18
   13.03500        1.3025780E-18
   13.17750        1.3022005E-18
   13.32000        1.3028552E-18
   13.46250        1.3047086E-18
   13.60500        1.3077015E-18
   13.74750        1.3115513E-18
   13.89000        1.3157979E-18
   14.03250        1.3198889E-18
   14.17500        1.3232911E-18
   14.31750        1.3255982E-18
   14.46000        1.3266183E-18
   14.60250        1.3264095E-18
   14.74500        1.3252643E-18
   14.88750        1.3236438E-18
   15.03000        1.3220777E-18
   15.17250        1.3210583E-18
   15.31500        1.3209435E-18
   15.45750        1.3218937E-18
   15.60000        1.3238460E-18
   15.74250        1.3265307E-18
   15.88500        1.3295205E-18
   16.02750        1.3323138E-18
   16.17000        1.3344307E-18
   16.31250        1.3355143E-18
   16.45500        1.3354067E-18
   16.59750        1.3341941E-18
   16.74000        1.3322013E-18
   16.88250        1.3299320E-18
   17.02500        1.3279692E-18
   17.16750        1.3268547E-18
   17.31000        1.3269755E-18
   17.45250        1.3284845E-18
   17.59500        1.3312718E-18
   17.73750        1.3349864E-18
   17.88000        1.3391091E-18
   18.02250        1.3430481E-18
   18.16500        1.3462442E-18
   18.30750        1.3482685E-18
   18.45000        1.3488929E-18
   18.59250        1.3481286E-18
   18.73500        1.3462215E-18
   18.87750        1.3436060E-18
   19.02000        1.3408247E-18
   19.16250        1.3384221E-18
   19.30500        1.3368385E-18
   19.44750        1.3363224E-18
   19.59000        1.3368859E-18
   19.73250        1.3383103E-18
   19.87500        1.3402065E-18
   20.01750        1.3421039E-18
   20.16000        1.3435596E-18
   20.30250        1.3442524E-18
   20.44500        1.3440445E-18
   20.58750        1.3430063E-18
   20.73000        1.3413945E-18
   20.87250        1.3395976E-18
   21.01500        1.3380574E-18
   21.15750        1.3371815E-18
   21.30000        1.3372605E-18
   21.44250        1.3384074E-18
   21.58500        1.3405302E-18
   21.72750        1.3433476E-18
   21.87000        1.3464464E-18
   22.01250        1.3493710E-18
   22.15500        1.3517251E-18
   22.29750        1.3532601E-18
   22.44000        1.3539316E-18
   22.58250        1.3539068E-18
   22.72500        1.3535279E-18
   22.86750        1.3532299E-18
   23.01000        1.3534499E-18
   23.15250        1.3545289E-18
   23.29500        1.3566413E-18
   23.43750        1.3597534E-18
   23.58000        1.3636199E-18
   23.72250        1.3678242E-18
   23.86500        1.3718451E-18
   24.00750        1.3751543E-18
   24.15000        1.3773164E-18
   24.29250        1.3780782E-18
   24.43500        1.3774261E-18
   24.57750        1.3755936E-18
   24.72000        1.3730182E-18
   24.86250        1.3702520E-18
   25.00500        1.3678466E-18
   25.14750        1.3662444E-18
   25.29000        1.3656905E-18
   25.43250        1.3661968E-18
   25.57500        1.3675511E-18
   25.71750        1.3693733E-18
   25.86000        1.3711994E-18
   26.00250        1.3725794E-18
   26.14500        1.3731667E-18
   26.28750        1.3727907E-18
   26.43000        1.3714971E-18
   26.57250        1.3695491E-18
   26.71500        1.3673828E-18
   26.85750        1.3655293E-18
   27.00000        1.3645082E-18
   27.14250        1.3647175E-18
   27.28500        1.3663430E-18
   27.42750        1.3693126E-18
   27.57000        1.3733067E-18
   27.71250        1.3778202E-18
   27.85500        1.3822673E-18
   27.99750        1.3860987E-18
   28.14000        1.3889010E-18
   28.28250        1.3904717E-18
   28.42500        1.3908426E-18
   28.56750        1.3902585E-18
   28.71000        1.3891199E-18
   28.85250        1.3878996E-18
   28.99500        1.3870483E-18
   29.13750        1.3869023E-18
   29.28000        1.3876150E-18
   29.42250        1.3891207E-18
   29.56500        1.3911413E-18
   29.70750        1.3932434E-18
   29.85000        1.3949301E-18
   29.99250        1.3957555E-18
   30.13500        1.3954285E-18
   30.27750        1.3938901E-18
   30.42000        1.3913349E-18
   30.56250        1.3881795E-18
   30.70500        1.3849827E-18
   30.84750        1.3823368E-18
   30.99000        1.3807531E-18
   31.13250        1.3805702E-18
   31.27500        1.3818882E-18
   31.41750        1.3845521E-18
   31.56000        1.3881756E-18
   31.70250        1.3922103E-18
   31.84500        1.3960418E-18
   31.98750        1.3991027E-18
   32.13000        1.4009824E-18
   32.27250        1.4015044E-18
   32.41500        1.4007673E-18
   32.55750        1.3991254E-18
   32.70000        1.3971171E-18
   32.84250        1.3953572E-18
   32.98500        1.3944137E-18
   33.12750        1.3946956E-18
   33.27000        1.3963804E-18
   33.41250        1.3993853E-18
   33.55500        1.4033896E-18
   33.69750        1.4078973E-18
   33.84000        1.4123295E-18
   33.98250        1.4161266E-18
   34.12500        1.4188457E-18
   34.26750        1.4202367E-18
   34.41000        1.4202826E-18
   34.55250        1.4191984E-18
   34.69500        1.4173833E-18
   34.83750        1.4153351E-18
   34.98000        1.4135449E-18
   35.12250        1.4123923E-18
   35.26500        1.4120703E-18
   35.40750        1.4125523E-18
   35.55000        1.4136109E-18
   35.69250        1.4148786E-18
   35.83500        1.4159361E-18
   35.97750        1.4164091E-18
   36.12000        1.4160467E-18
   36.26250        1.4147754E-18
   36.40500        1.4127195E-18
   36.54750        1.4101830E-18
   36.69000        1.4076041E-18
   36.83250        1.4054792E-18
   36.97500        1.4042765E-18
   37.11750        1.4043459E-18
   37.26000        1.4058466E-18
   37.40250        1.4087095E-18
   37.54500        1.4126433E-18
   37.68750        1.4171884E-18
   37.83000        1.4218081E-18
   37.97250        1.4259925E-18
   38.11500        1.4293552E-18
   38.25750        1.4316980E-18
   38.40000        1.4330297E-18
   38.54250        1.4335443E-18
   38.68500        1.4335631E-18
   38.82750        1.4334572E-18
   38.97000        1.4335685E-18
   39.11250        1.4341428E-18
   39.25500        1.4352812E-18
   39.39750        1.4369193E-18
   39.54000        1.4388398E-18
   39.68250        1.4407136E-18
   39.82500        1.4421707E-18
   39.96750        1.4428841E-18
   40.11000        1.4426520E-18
   40.25250        1.4414583E-18
   40.39500        1.4394893E-18
   40.53750        1.4371082E-18
   40.68000        1.4347848E-18
   40.82250        1.4329981E-18
   40.96500        1.4321403E-18
   41.10750        1.4324390E-18
   41.25000        1.4339148E-18
   41.39250        1.4363835E-18
   41.53500        1.4394920E-18
   41.67750        1.4427879E-18
   41.82000        1.4457978E-18
   41.96250        1.4481126E-18
   42.10500        1.4494563E-18
   42.24750        1.4497344E-18
   42.39000        1.4490459E-18
   42.53250        1.4476621E-18
   42.67500        1.4459664E-18
   42.81750        1.4443670E-18
   42.96000        1.4432057E-18
   43.10250        1.4426846E-18
   43.24500        1.4428210E-18
   43.38750        1.4434550E-18
   43.53000        1.4442936E-18
   43.67250        1.4449869E-18
   43.81500        1.4452155E-18
   43.95750        1.4447661E-18
   44.10000        1.4435830E-18
   44.24250        1.4417853E-18
   44.38500        1.4396515E-18
   44.52750        1.4375704E-18
   44.67000        1.4359722E-18
   44.81250        1.4352458E-18
   44.95500        1.4356602E-18
   45.09750        1.4373016E-18
   45.24000        1.4400460E-18
   45.38250        1.4435730E-18
   45.52500        1.4474246E-18
   45.66750        1.4510933E-18
   45.81000        1.4541270E-18
   45.95250        1.4562163E-18
   46.09500        1.4572562E-18
   46.23750        1.4573518E-18
   46.38000        1.4567910E-18
   46.52250        1.4559759E-18
   46.66500        1.4553397E-18
   46.80750        1.4552638E-18
   46.95000        1.4560078E-18
   47.09250        1.4576651E-18
   47.23500        1.4601440E-18
   47.37750        1.4631845E-18
   47.52000        1.4664053E-18
   47.66250        1.4693765E-18
   47.80500        1.4717072E-18
   47.94750        1.4731301E-18
   48.09000        1.4735622E-18
   48.23250        1.4731230E-18
   48.37500        1.4721098E-18
   48.51750        1.4709243E-18
   48.66000        1.4699804E-18
   48.80250        1.4696104E-18
   48.94500        1.4699956E-18
   49.08750        1.4711316E-18
   49.23000        1.4728346E-18
   49.37250        1.4747839E-18
   49.51500        1.4765860E-18
   49.65750        1.4778473E-18
   49.80000        1.4782495E-18
   49.94250        1.4776087E-18
   50.08500        1.4759188E-18
   50.22750        1.4733668E-18
   50.37000        1.4703091E-18
   50.51250        1.4672151E-18
   50.65500        1.4645803E-18
   50.79750        1.4628290E-18
   50.94000        1.4622248E-18
   51.08250        1.4628178E-18
   51.22500        1.4644354E-18
   51.36750        1.4667248E-18
   51.51000        1.4692301E-18
   51.65250        1.4714848E-18
   51.79500        1.4731048E-18
   51.93750        1.4738520E-18
   52.08000        1.4736749E-18
   52.22250        1.4727080E-18
   52.36500        1.4712467E-18
   52.50750        1.4696920E-18
   52.65000        1.4684782E-18
   52.79250        1.4679903E-18
   52.93500        1.4684868E-18
   53.07750        1.4700422E-18
   53.22000        1.4725230E-18
   53.36250        1.4756115E-18
   53.50500        1.4788666E-18
   53.64750        1.4818186E-18
   53.79000        1.4840647E-18
   53.93250        1.4853542E-18
   54.07500        1.4856321E-18
   54.21750        1.4850468E-18
   54.36000        1.4839114E-18
   54.50250        1.4826417E-18
   54.64500        1.4816755E-18
   54.78750        1.4813923E-18
   54.93000        1.4820428E-18
   55.07250        1.4836988E-18
   55.21500        1.4862336E-18
   55.35750        1.4893399E-18
   55.50000        1.4925803E-18
   55.64250        1.4954735E-18
   55.78500        1.4975913E-18
   55.92750        1.4986492E-18
   56.07000        1.4985671E-18
   56.21250        1.4974857E-18
   56.35500        1.4957323E-18
   56.49750        1.4937470E-18
   56.64000        1.4919909E-18
   56.78250        1.4908540E-18
   56.92500        1.4905839E-18
   57.06750        1.4912469E-18
   57.21000        1.4927208E-18
   57.35250        1.4947191E-18
   57.49500        1.4968466E-18
   57.63750        1.4986715E-18
   57.78000        1.4998108E-18
   57.92250        1.5000119E-18
   58.06500        1.4992165E-18
   58.20750        1.4975833E-18
   58.35000        1.4954687E-18
   58.49250        1.4933549E-18
   58.63500        1.4917468E-18
   58.77750        1.4910628E-18
   58.92000        1.4915450E-18
   59.06250        1.4932094E-18
   59.20500        1.4958512E-18
   59.34750        1.4990905E-18
   59.49000        1.5024543E-18
   59.63250        1.5054660E-18
   59.77500        1.5077300E-18
   59.91750        1.5089996E-18
   60.06000        1.5092169E-18
   60.20250        1.5085261E-18
   60.34500        1.5072503E-18
   60.48750        1.5058355E-18
   60.63000        1.5047642E-18
   60.77250        1.5044545E-18
   60.91500        1.5051667E-18
   61.05750        1.5069363E-18
   61.20000        1.5095592E-18
   61.34250        1.5126348E-18
   61.48500        1.5156505E-18
   61.62750        1.5180960E-18
   61.77000        1.5195679E-18
   61.91250        1.5198484E-18
   62.05500        1.5189438E-18
   62.19750        1.5170723E-18
   62.34000        1.5146192E-18
   62.48250        1.5120642E-18
   62.62500        1.5098990E-18
   62.76750        1.5085426E-18
   62.91000        1.5082639E-18
   63.05250        1.5091317E-18
   63.19500        1.5109962E-18
   63.33750        1.5135116E-18
   63.48000        1.5162022E-18
   63.62250        1.5185610E-18
   63.76500        1.5201568E-18
   63.90750        1.5207270E-18
   64.05000        1.5202299E-18
   64.19250        1.5188465E-18
   64.33500        1.5169362E-18
   64.47750        1.5149572E-18
   64.62000        1.5133751E-18
   64.76250        1.5125785E-18
   64.90500        1.5128146E-18
   65.04750        1.5141535E-18
   65.19000        1.5164805E-18
   65.33250        1.5195157E-18
   65.47500        1.5228668E-18
   65.61750        1.5260965E-18
   65.76000        1.5288088E-18
   65.90250        1.5307247E-18
   66.04500        1.5317384E-18
   66.18750        1.5319342E-18
   66.33000        1.5315555E-18
   66.47250        1.5309416E-18
   66.61500        1.5304401E-18
   66.75750        1.5303245E-18
   66.90000        1.5307380E-18
   67.04250        1.5316698E-18
   67.18500        1.5329667E-18
   67.32750        1.5343721E-18
   67.47000        1.5355798E-18
   67.61250        1.5362928E-18
   67.75500        1.5362792E-18
   67.89750        1.5354234E-18
   68.04000        1.5337581E-18
   68.18250        1.5314777E-18
   68.32500        1.5289143E-18
   68.46750        1.5264854E-18
   68.61000        1.5246108E-18
   68.75250        1.5236233E-18
   68.89500        1.5236954E-18
   69.03750        1.5248018E-18
   69.18000        1.5267246E-18
   69.32250        1.5291090E-18
   69.46500        1.5315388E-18
   69.60750        1.5336212E-18
   69.75000        1.5350555E-18
   69.89250        1.5356795E-18
   70.03500        1.5354871E-18
   70.17750        1.5346210E-18
   70.32000        1.5333485E-18
   70.46250        1.5320169E-18
   70.60500        1.5309945E-18
   70.74750        1.5306027E-18
   70.89000        1.5310454E-18
   71.03250        1.5323601E-18
   71.17500        1.5343987E-18
   71.31750        1.5368549E-18
   71.46000        1.5393300E-18
   71.60250        1.5414254E-18
   71.74500        1.5428302E-18
   71.88750        1.5433870E-18
   72.03000        1.5431170E-18
   72.17250        1.5422034E-18
   72.31500        1.5409431E-18
   72.45750        1.5396846E-18
   72.60000        1.5387631E-18
   72.74250        1.5384442E-18
   72.88500        1.5388833E-18
   73.02750        1.5400993E-18
   73.17000        1.5419693E-18
   73.31250        1.5442478E-18
   73.45500        1.5466113E-18
   73.59750        1.5487265E-18
   73.74000        1.5503249E-18
   73.88250        1.5512692E-18
   74.02500        1.5515865E-18
   74.16750        1.5514594E-18
   74.31000        1.5511779E-18
   74.45250        1.5510608E-18
   74.59500        1.5513748E-18
   74.73750        1.5522704E-18
   74.88000        1.5537494E-18
   75.02250        1.5556648E-18
   75.16500        1.5577509E-18
   75.30750        1.5596745E-18
   75.45000        1.5610940E-18
   75.59250        1.5617222E-18
   75.73500        1.5613845E-18
   75.87750        1.5600678E-18
   76.02000        1.5579376E-18
   76.16250        1.5553245E-18
   76.30500        1.5526722E-18
   76.44750        1.5504501E-18
   76.59000        1.5490559E-18
   76.73250        1.5487275E-18
   76.87500        1.5494911E-18
   77.01750        1.5511574E-18
   77.16000        1.5533698E-18
   77.30250        1.5556799E-18
   77.44500        1.5576428E-18
   77.58750        1.5588974E-18
   77.73000        1.5592317E-18
   77.87250        1.5586162E-18
   78.01500        1.5572092E-18
   78.15750        1.5553356E-18
   78.30000        1.5534334E-18
   78.44250        1.5519836E-18
   78.58500        1.5514165E-18
   78.72750        1.5520210E-18
   78.87000        1.5538774E-18
   79.01250        1.5568319E-18
   79.15500        1.5605247E-18
   79.29750        1.5644664E-18
   79.44000        1.5681473E-18
   79.58250        1.5711462E-18
   79.72500        1.5732123E-18
   79.86750        1.5743011E-18
   80.01000        1.5745628E-18
   80.15250        1.5742950E-18
   80.29500        1.5738679E-18
   80.43750        1.5736501E-18
   80.58000        1.5739334E-18
   80.72250        1.5748760E-18
   80.86500        1.5764649E-18
   81.00750        1.5785026E-18
   81.15000        1.5806322E-18
   81.29250        1.5824000E-18
   81.43500        1.5833462E-18
   81.57750        1.5831111E-18
   81.72000        1.5815268E-18
   81.86250        1.5786702E-18
   82.00500        1.5748571E-18
   82.14750        1.5705842E-18
   82.29000        1.5664257E-18
   82.43250        1.5629242E-18
   82.57500        1.5604884E-18
   82.71750        1.5593303E-18
   82.86000        1.5594437E-18
   83.00250        1.5606185E-18
   83.14500        1.5624908E-18
   83.28750        1.5646087E-18
   83.43000        1.5665143E-18
   83.57250        1.5678253E-18
   83.71500        1.5683107E-18
   83.85750        1.5679397E-18
   84.00000        1.5668893E-18
   84.14250        1.5655102E-18
   84.28500        1.5642456E-18
   84.42750        1.5635272E-18
   84.57000        1.5636733E-18
   84.71250        1.5648137E-18
   84.85500        1.5668623E-18
   84.99750        1.5695423E-18
   85.14000        1.5724457E-18
   85.28250        1.5751195E-18
   85.42500        1.5771500E-18
   85.56750        1.5782347E-18
   85.71000        1.5782337E-18
   85.85250        1.5771929E-18
   85.99500        1.5753409E-18
   86.13750        1.5730540E-18
   86.28000        1.5707931E-18
   86.42250        1.5690179E-18
   86.56500        1.5680947E-18
   86.70750        1.5682209E-18
   86.85000        1.5693837E-18
   86.99250        1.5713710E-18
   87.13500        1.5738234E-18
   87.27750        1.5763262E-18
   87.42000        1.5785006E-18
   87.56250        1.5800830E-18
   87.70500        1.5809658E-18
   87.84750        1.5812066E-18
   87.99000        1.5810011E-18
   88.13250        1.5806399E-18
   88.27500        1.5804510E-18
   88.41750        1.5807411E-18
   88.56000        1.5817350E-18
   88.70250        1.5835249E-18
   88.84500        1.5860390E-18
   88.98750        1.5890379E-18
   89.13000        1.5921557E-18
   89.27250        1.5949724E-18
   89.41500        1.5971111E-18
   89.55750        1.5983313E-18
   89.70000        1.5985884E-18
   89.84250        1.5980476E-18
   89.98500        1.5970438E-18
   90.12750        1.5960063E-18
   90.27000        1.5953675E-18
   90.41250        1.5954757E-18
   90.55500        1.5965339E-18
   90.69750        1.5985688E-18
   90.84000        1.6014254E-18
   90.98250        1.6047884E-18
   91.12500        1.6082265E-18
   91.26750        1.6112584E-18
   91.41000        1.6134326E-18
   91.55250        1.6144158E-18
   91.69500        1.6140658E-18
   91.83750        1.6124756E-18
   91.98000        1.6099598E-18
   92.12250        1.6069983E-18
   92.26500        1.6041331E-18
   92.40750        1.6018563E-18
   92.55000        1.6005122E-18
   92.69250        1.6002378E-18
   92.83500        1.6009530E-18
   92.97750        1.6023969E-18
   93.12000        1.6041921E-18
   93.26250        1.6059264E-18
   93.40500        1.6072293E-18
   93.54750        1.6078414E-18
   93.69000        1.6076624E-18
   93.83250        1.6067775E-18
   93.97500        1.6054427E-18
   94.11750        1.6040429E-18
   94.26000        1.6030105E-18
   94.40250        1.6027306E-18
   94.54500        1.6034481E-18
   94.68750        1.6052025E-18
   94.83000        1.6078152E-18
   94.97250        1.6109243E-18
   95.11500        1.6140652E-18
   95.25750        1.6167704E-18
   95.40000        1.6186655E-18
   95.54250        1.6195399E-18
   95.68500        1.6193816E-18
   95.82750        1.6183735E-18
   95.97000        1.6168563E-18
   96.11250        1.6152644E-18
   96.25500        1.6140492E-18
   96.39750        1.6135886E-18
   96.54000        1.6141082E-18
   96.68250        1.6156257E-18
   96.82500        1.6179354E-18
   96.96750        1.6206432E-18
   97.11000        1.6232480E-18
   97.25250        1.6252529E-18
   97.39500        1.6262735E-18
   97.53750        1.6261223E-18
   97.68000        1.6248430E-18
   97.82250        1.6226899E-18
   97.96500        1.6200670E-18
   98.10750        1.6174393E-18
   98.25000        1.6152424E-18
   98.39250        1.6138081E-18
   98.53500        1.6133055E-18
   98.67750        1.6137148E-18
   98.82000        1.6148253E-18
   98.96250        1.6162681E-18
   99.10500        1.6175801E-18
   99.24750        1.6182918E-18
   99.39000        1.6180304E-18