  -30.00000        9.8404491E-18
  -29.85750        9.8575114E-18
  -29.71500        9.8833467E-18
  -29.57250        9.9064250E-18
  -29.43000        9.9186384E-18
  -29.28750        9.9198287E-18
  -29.14500        9.9174952E-18
  -29.00250        9.9219024E-18
  -28.86000        9.9395578E-18
  -28.71750        9.9690261E-18
  -28.57500        1.0001579E-17
  -28.43250        1.0026314E-17
  -28.29000        1.0036637E-17
  -28.14750        1.0034205E-17
  -28.00500        1.0027964E-17
  -27.86250        1.0028840E-17
  -27.72000        1.0043282E-17
  -27.57750        1.0069506E-17
  -27.43500        1.0098687E-17
  -27.29250        1.0120337E-17
  -27.15000        1.0128631E-17
  -27.00750        1.0125850E-17
  -26.86500        1.0120925E-17
  -26.72250        1.0123965E-17
  -26.58000        1.0140108E-17
  -26.43750        1.0166419E-17
  -26.29500        1.0193692E-17
  -26.15250        1.0212048E-17
  -26.01000        1.0216924E-17
  -25.86750        1.0211842E-17
  -25.72500        1.0206276E-17
  -25.58250        1.0209910E-17
  -25.44000        1.0226793E-17
  -25.29750        1.0252895E-17
  -25.15500        1.0278560E-17
  -25.01250        1.0294348E-17
  -24.87000        1.0296734E-17
  -24.72750        1.0290215E-17
  -24.58500        1.0284560E-17
  -24.44250        1.0288874E-17
  -24.30000        1.0306096E-17
  -24.15750        1.0331250E-17
  -24.01500        1.0354522E-17
  -23.87250        1.0367273E-17
  -23.73000        1.0367342E-17
  -23.58750        1.0360402E-17
  -23.44500        1.0356539E-17
  -23.30250        1.0364098E-17
  -23.16000        1.0384557E-17
  -23.01750        1.0411520E-17
  -22.87500        1.0434486E-17
  -22.73250        1.0445126E-17
  -22.59000        1.0442283E-17
  -22.44750        1.0432670E-17
  -22.30500        1.0426834E-17
  -22.16250        1.0432807E-17
  -22.02000        1.0451279E-17
  -21.87750        1.0475213E-17
  -21.73500        1.0494144E-17
  -21.59250        1.0500559E-17
  -21.45000        1.0494499E-17
  -21.30750        1.0483588E-17
  -21.16500        1.0478438E-17
  -21.02250        1.0486198E-17
  -20.88000        1.0506133E-17
  -20.73750        1.0529930E-17
  -20.59500        1.0546583E-17
  -20.45250        1.0548948E-17
  -20.31000        1.0538030E-17
  -20.16750        1.0522445E-17
  -20.02500        1.0513342E-17
  -19.88250        1.0517849E-17
  -19.74000        1.0534947E-17
  -19.59750        1.0556246E-17
  -19.45500        1.0571184E-17
  -19.31250        1.0573490E-17
  -19.17000        1.0565037E-17
  -19.02750        1.0554719E-17
  -18.88500        1.0553053E-17
  -18.74250        1.0565732E-17
  -18.60000        1.0590020E-17
  -18.45750        1.0616172E-17
  -18.31500        1.0633042E-17
  -18.17250        1.0634550E-17
  -18.03000        1.0623143E-17
  -17.88750        1.0608202E-17
  -17.74500        1.0600378E-17
  -17.60250        1.0605275E-17
  -17.46000        1.0620252E-17
  -17.31750        1.0636255E-17
  -17.17500        1.0643511E-17
  -17.03250        1.0637650E-17
  -16.89000        1.0622527E-17
  -16.74750        1.0608046E-17
  -16.60500        1.0604312E-17
  -16.46250        1.0615602E-17
  -16.32000        1.0637830E-17
  -16.17750        1.0660974E-17
  -16.03500        1.0675040E-17
  -15.89250        1.0675931E-17
  -15.75000        1.0667742E-17
  -15.60750        1.0660102E-17
  -15.46500        1.0662217E-17
  -15.32250        1.0677232E-17
  -15.18000        1.0700300E-17
  -15.03750        1.0721532E-17
  -14.89500        1.0731989E-17
  -14.75250        1.0729098E-17
  -14.61000        1.0718192E-17
  -14.46750        1.0709258E-17
  -14.32500        1.0710866E-17
  -14.18250        1.0724967E-17
  -14.04000        1.0745720E-17
  -13.89750        1.0763046E-17
  -13.75500        1.0768766E-17
  -13.61250        1.0761594E-17
  -13.47000        1.0747965E-17
  -13.32750        1.0738183E-17
  -13.18500        1.0740234E-17
  -13.04250        1.0754996E-17
  -12.90000        1.0775761E-17
  -12.75750        1.0792341E-17
  -12.61500        1.0797274E-17
  -12.47250        1.0790356E-17
  -12.33000        1.0778756E-17
  -12.18750        1.0772624E-17
  -12.04500        1.0778853E-17
  -11.90250        1.0796805E-17
  -11.76000        1.0818589E-17
  -11.61750        1.0833773E-17
  -11.47500        1.0835686E-17
  -11.33250        1.0825508E-17
  -11.19000        1.0811657E-17
  -11.04750        1.0804814E-17
  -10.90500        1.0811567E-17
  -10.76250        1.0830496E-17
  -10.62000        1.0853060E-17
  -10.47750        1.0868765E-17
  -10.33500        1.0871499E-17
  -10.19250        1.0863196E-17
  -10.05000        1.0852636E-17
  -9.907500        1.0850080E-17
  -9.765000        1.0860974E-17
  -9.622500        1.0882544E-17
  -9.480000        1.0905342E-17
  -9.337500        1.0918861E-17
  -9.195000        1.0917837E-17
  -9.052500        1.0905470E-17
  -8.910000        1.0891593E-17
  -8.767500        1.0886885E-17
  -8.625000        1.0896567E-17
  -8.482500        1.0917362E-17
  -8.340000        1.0939523E-17
  -8.197500        1.0952696E-17
  -8.055000        1.0952110E-17
  -7.912500        1.0941356E-17
  -7.770000        1.0930126E-17
  -7.627500        1.0928266E-17
  -7.485000        1.0939750E-17
  -7.342500        1.0960215E-17
  -7.200000        1.0979534E-17
  -7.057500        1.0987891E-17
  -6.915000        1.0981720E-17
  -6.772500        1.0965917E-17
  -6.630000        1.0951017E-17
  -6.487500        1.0947024E-17
  -6.345000        1.0957586E-17
  -6.202500        1.0977989E-17
  -6.060000        1.0998142E-17
  -5.917500        1.1008729E-17
  -5.775000        1.1006789E-17
  -5.632500        1.0997395E-17
  -5.490000        1.0990447E-17
  -5.347500        1.0994535E-17
  -5.205000        1.1011616E-17
  -5.062500        1.1035723E-17
  -4.920000        1.1056477E-17
  -4.777500        1.1065290E-17
  -4.635000        1.1060488E-17
  -4.492500        1.1048291E-17
  -4.350000        1.1039057E-17
  -4.207500        1.1041061E-17
  -4.065000        1.1055582E-17
  -3.922500        1.1076236E-17
  -3.780000        1.1092930E-17
  -3.637500        1.1098037E-17
  -3.495000        1.1091021E-17
  -3.352500        1.1078739E-17
  -3.210000        1.1071233E-17
  -3.067500        1.1075589E-17
  -2.925000        1.1091605E-17
  -2.782500        1.1111894E-17
  -2.640000        1.1126361E-17
  -2.497500        1.1128364E-17
  -2.355000        1.1118772E-17
  -2.212500        1.1105505E-17
  -2.070000        1.1098771E-17
  -1.927500        1.1104915E-17
  -1.785000        1.1122584E-17
  -1.642500        1.1143534E-17
  -1.500000        1.1157616E-17
  -1.357500        1.1158903E-17
  -1.215000        1.1149267E-17
  -1.072500        1.1137227E-17
 -0.9300000        1.1132751E-17
 -0.7875000        1.1141181E-17
 -0.6450000        1.1159935E-17
 -0.5025000        1.1180038E-17
 -0.3600000        1.1191539E-17
 -0.2175000        1.1189577E-17
 -7.5000003E-02    1.1177404E-17
  6.7500003E-02    1.1164515E-17
  0.2100000        1.1160991E-17
  0.3525000        1.1171437E-17
  0.4950000        1.1192187E-17
  0.6375000        1.1213452E-17
  0.7800000        1.1225160E-17
  0.9225000        1.1222962E-17
   1.065000        1.1210816E-17
   1.207500        1.1198575E-17
   1.350000        1.1196031E-17
   1.492500        1.1207002E-17
   1.635000        1.1227030E-17
   1.777500        1.1246076E-17
   1.920000        1.1254606E-17
   2.062500        1.1249397E-17
   2.205000        1.1235572E-17
   2.347500        1.1223610E-17
   2.490000        1.1223129E-17
   2.632500        1.1237133E-17
   2.775000        1.1260211E-17
   2.917500        1.1281728E-17
   3.060000        1.1292119E-17
   3.202500        1.1288512E-17
   3.345000        1.1276315E-17
   3.487500        1.1265837E-17
   3.630000        1.1266016E-17
   3.772500        1.1279008E-17
   3.915000        1.1298905E-17
   4.057500        1.1315345E-17
   4.200000        1.1319809E-17
   4.342500        1.1310821E-17
   4.485000        1.1294916E-17
   4.627500        1.1282786E-17
   4.770000        1.1282947E-17
   4.912500        1.1296708E-17
   5.055000        1.1317465E-17
   5.197500        1.1334726E-17
   5.340000        1.1340405E-17
   5.482500        1.1333619E-17
   5.625000        1.1321104E-17
   5.767500        1.1313032E-17
   5.910000        1.1316799E-17
   6.052500        1.1332535E-17
   6.195000        1.1353049E-17
   6.337500        1.1368223E-17
   6.480000        1.1371175E-17
   6.622500        1.1362454E-17
   6.765000        1.1349731E-17
   6.907500        1.1343175E-17
   7.050000        1.1349322E-17
   7.192500        1.1367147E-17
   7.335000        1.1388703E-17
   7.477500        1.1403934E-17
   7.620000        1.1406744E-17
   7.762500        1.1398639E-17
   7.905000        1.1387757E-17
   8.047500        1.1383873E-17
   8.190000        1.1392426E-17
   8.332500        1.1411204E-17
   8.475000        1.1431675E-17
   8.617500        1.1444179E-17
   8.760000        1.1443801E-17
   8.902500        1.1433381E-17
   9.045000        1.1421782E-17
   9.187500        1.1418501E-17
   9.330000        1.1427843E-17
   9.472500        1.1446226E-17
   9.615000        1.1464266E-17
   9.757500        1.1472392E-17
   9.900000        1.1466627E-17
   10.04250        1.1451022E-17
   10.18500        1.1435286E-17
   10.32750        1.1428999E-17
   10.47000        1.1435928E-17
   10.61250        1.1451852E-17
   10.75500        1.1467230E-17
   10.89750        1.1473101E-17
   11.04000        1.1466630E-17
   11.18250        1.1452950E-17
   11.32500        1.1442149E-17
   11.46750        1.1443203E-17
   11.61000        1.1458497E-17
   11.75250        1.1482262E-17
   11.89500        1.1503889E-17
   12.03750        1.1514154E-17
   12.18000        1.1510643E-17
   12.32250        1.1499111E-17
   12.46500        1.1489963E-17
   12.60750        1.1491971E-17
   12.75000        1.1506996E-17
   12.89250        1.1528890E-17
   13.03500        1.1547218E-17
   13.17750        1.1553572E-17
   13.32000        1.1546663E-17
   13.46250        1.1533120E-17
   13.60500        1.1523523E-17
   13.74750        1.1526035E-17
   13.89000        1.1541466E-17
   14.03250        1.1562744E-17
   14.17500        1.1579104E-17
   14.31750        1.1582485E-17
   14.46000        1.1572315E-17
   14.60250        1.1555822E-17
   14.74500        1.1543702E-17
   14.88750        1.1543747E-17
   15.03000        1.1556292E-17
   15.17250        1.1574149E-17
   15.31500        1.1587077E-17
   15.45750        1.1588039E-17
   15.60000        1.1577498E-17
   15.74250        1.1563130E-17
   15.88500        1.1555195E-17
   16.02750        1.1560324E-17
   16.17000        1.1577501E-17
   16.31250        1.1598654E-17
   16.45500        1.1613466E-17
   16.59750        1.1615527E-17
   16.74000        1.1606099E-17
   16.88250        1.1593259E-17
   17.02500        1.1586955E-17
   17.16750        1.1592985E-17
   17.31000        1.1609527E-17
   17.45250        1.1628305E-17
   17.59500        1.1639658E-17
   17.73750        1.1638423E-17
   17.88000        1.1627066E-17
   18.02250        1.1614173E-17
   18.16500        1.1609232E-17
   18.30750        1.1616871E-17
   18.45000        1.1634069E-17
   18.59250        1.1652000E-17
   18.73500        1.1661420E-17
   18.87750        1.1658296E-17
   19.02000        1.1646282E-17
   19.16250        1.1634529E-17
   19.30500        1.1632154E-17
   19.44750        1.1642714E-17
   19.59000        1.1662045E-17
   19.73250        1.1680770E-17
   19.87500        1.1689963E-17
   20.01750        1.1686527E-17
   20.16000        1.1675045E-17
   20.30250        1.1664959E-17
   20.44500        1.1664791E-17
   20.58750        1.1676916E-17
   20.73000        1.1696058E-17
   20.87250        1.1712451E-17
   21.01500        1.1717759E-17
   21.15750        1.1710182E-17
   21.30000        1.1695647E-17
   21.44250        1.1684339E-17
   21.58500        1.1684633E-17
   21.72750        1.1698093E-17
   21.87000        1.1718532E-17
   22.01250        1.1735732E-17
   22.15500        1.1741576E-17
   22.29750        1.1734911E-17
   22.44000        1.1722201E-17
   22.58250        1.1713565E-17
   22.72500        1.1716599E-17
   22.86750        1.1731693E-17
   23.01000        1.1751688E-17
   23.15250        1.1766101E-17
   23.29500        1.1767401E-17
   23.43750        1.1755555E-17
   23.58000        1.1738113E-17
   23.72250        1.1725779E-17
   23.86500        1.1726093E-17
   24.00750        1.1739020E-17
   24.15000        1.1757076E-17
   24.29250        1.1769907E-17
   24.43500        1.1770553E-17
   24.57750        1.1759655E-17
   24.72000        1.1745051E-17
   24.86250        1.1737044E-17
   25.00500        1.1742180E-17
   25.14750        1.1759276E-17
   25.29000        1.1780098E-17
   25.43250        1.1794276E-17
   25.57500        1.1795483E-17
   25.71750        1.1785204E-17
   25.86000        1.1771811E-17
   26.00250        1.1765532E-17
   26.14500        1.1772342E-17
   26.28750        1.1790425E-17
   26.43000        1.1811334E-17
   26.57250        1.1825101E-17
   26.71500        1.1826211E-17
   26.85750        1.1816850E-17
   27.00000        1.1805482E-17
   27.14250        1.1801652E-17
   27.28500        1.1810159E-17
   27.42750        1.1828131E-17
   27.57000        1.1846762E-17
   27.71250        1.1856618E-17
   27.85500        1.1853339E-17
   27.99750        1.1840259E-17
   28.14000        1.1826389E-17
   28.28250        1.1821007E-17
   28.42500        1.1828109E-17
   28.56750        1.1844084E-17
   28.71000        1.1859997E-17
   28.85250        1.1867071E-17
   28.99500        1.1862038E-17
   29.13750        1.1849129E-17
   29.28000        1.1837490E-17
   29.42250        1.1835614E-17
   29.56500        1.1846180E-17
   29.70750        1.1864415E-17
   29.85000        1.1880989E-17
   29.99250        1.1887673E-17
   30.13500        1.1882335E-17
   30.27750        1.1870229E-17
   30.42000        1.1860793E-17
   30.56250        1.1861899E-17
   30.70500        1.1875023E-17
   30.84750        1.1894292E-17
   30.99000        1.1909976E-17
   31.13250        1.1914333E-17
   31.27500        1.1906276E-17
   31.41750        1.1892027E-17
   31.56000        1.1881354E-17
   31.70250        1.1881675E-17
   31.84500        1.1893573E-17
   31.98750        1.1910455E-17
   32.13000        1.1922579E-17
   32.27250        1.1922994E-17
   32.41500        1.1911825E-17
   32.55750        1.1896281E-17
   32.70000        1.1886348E-17
   32.84250        1.1888769E-17
   32.98500        1.1902911E-17
   33.12750        1.1921055E-17
   33.27000        1.1932932E-17
   33.41250        1.1931826E-17
   33.55500        1.1918564E-17
   33.69750        1.1901006E-17
   33.84000        1.1889340E-17
   33.98250        1.1890002E-17
   34.12500        1.1901879E-17
   34.26750        1.1917082E-17
   34.41000        1.1925809E-17
   34.55250        1.1922376E-17
   34.69500        1.1908783E-17
   34.83750        1.1893641E-17
   34.98000        1.1887109E-17
   35.12250        1.1894855E-17
   35.26500        1.1914669E-17
   35.40750        1.1937761E-17
   35.55000        1.1953965E-17
   35.69250        1.1957729E-17
   35.83500        1.1951323E-17
   35.97750        1.1943349E-17
   36.12000        1.1943466E-17
   36.26250        1.1956521E-17
   36.40500        1.1979589E-17
   36.54750        1.2003711E-17
   36.69000        1.2019242E-17
   36.83250        1.2021595E-17
   36.97500        1.2013921E-17
   37.11750        1.2005127E-17
   37.26000        1.2004445E-17
   37.40250        1.2015826E-17
   37.54500        1.2035526E-17
   37.68750        1.2054348E-17
   37.83000        1.2063138E-17
   37.97250        1.2058261E-17
   38.11500        1.2043730E-17
   38.25750        1.2028763E-17
   38.40000        1.2022236E-17
   38.54250        1.2027402E-17
   38.68500        1.2040046E-17
   38.82750        1.2051169E-17
   38.97000        1.2052546E-17
   39.11250        1.2041785E-17
   39.25500        1.2023820E-17
   39.39750        1.2007960E-17
   39.54000        1.2002286E-17
   39.68250        1.2008794E-17
   39.82500        1.2022231E-17
   39.96750        1.2033321E-17
   40.11000        1.2034412E-17
   40.25250        1.2024134E-17
   40.39500        1.2008227E-17
   40.53750        1.1996060E-17
   40.68000        1.1994941E-17
   40.82250        1.2005671E-17
   40.96500        1.2022039E-17
   41.10750        1.2034563E-17
   41.25000        1.2036216E-17
   41.39250        1.2026658E-17
   41.53500        1.2012429E-17
   41.67750        1.2002965E-17
   41.82000        1.2004858E-17
   41.96250        1.2017859E-17
   42.10500        1.2035023E-17
   42.24750        1.2046953E-17
   42.39000        1.2047551E-17
   42.53250        1.2037811E-17
   42.67500        1.2025316E-17
   42.81750        1.2019730E-17
   42.96000        1.2026982E-17
   43.10250        1.2045646E-17
   43.24500        1.2067721E-17
   43.38750        1.2083353E-17
   43.53000        1.2086666E-17
   43.67250        1.2079216E-17
   43.81500        1.2068951E-17
   43.95750        1.2065339E-17
   44.10000        1.2073571E-17
   44.24250        1.2091356E-17
   44.38500        1.2110250E-17
   44.52750        1.2120725E-17
   44.67000        1.2117953E-17
   44.81250        1.2104792E-17
   44.95500        1.2090185E-17
   45.09750        1.2083891E-17
   45.24000        1.2090711E-17
   45.38250        1.2107656E-17
   45.52500        1.2125765E-17
   45.66750        1.2135471E-17
   45.81000        1.2132318E-17
   45.95250        1.2119576E-17
   46.09500        1.2106229E-17
   46.23750        1.2101519E-17
   46.38000        1.2109361E-17
   46.52250        1.2125961E-17
   46.66500        1.2142084E-17
   46.80750        1.2148598E-17
   46.95000        1.2141962E-17
   47.09250        1.2126368E-17
   47.23500        1.2111257E-17
   47.37750        1.2105703E-17
   47.52000        1.2113048E-17
   47.66250        1.2128975E-17
   47.80500        1.2144185E-17
   47.94750        1.2150029E-17
   48.09000        1.2143709E-17
   48.23250        1.2129924E-17
   48.37500        1.2117999E-17
   48.51750        1.2116239E-17
   48.66000        1.2126931E-17
   48.80250        1.2144992E-17
   48.94500        1.2161060E-17
   49.08750        1.2167149E-17
   49.23000        1.2161448E-17
   49.37250        1.2149363E-17
   49.51500        1.2140207E-17
   49.65750        1.2141537E-17
   49.80000        1.2154567E-17
   49.94250        1.2173435E-17
   50.08500        1.2188728E-17
   50.22750        1.2193149E-17
   50.37000        1.2185883E-17
   50.51250        1.2173028E-17
   50.65500        1.2163868E-17
   50.79750        1.2165220E-17
   50.94000        1.2177328E-17
   51.08250        1.2193742E-17
   51.22500        1.2205291E-17
   51.36750        1.2205678E-17
   51.51000        1.2195345E-17
   51.65250        1.2181223E-17
   51.79500        1.2172529E-17
   51.93750        1.2175151E-17
   52.08000        1.2188032E-17
   52.22250        1.2203756E-17
   52.36500        1.2212988E-17
   52.50750        1.2210113E-17
   52.65000        1.2196638E-17
   52.79250        1.2180316E-17
   52.93500        1.2170505E-17
   53.07750        1.2172561E-17
   53.22000        1.2184658E-17
   53.36250        1.2198970E-17
   53.50500        1.2206484E-17
   53.64750        1.2202557E-17
   53.79000        1.2189820E-17
   53.93250        1.2176663E-17
   54.07500        1.2172191E-17
   54.21750        1.2180677E-17
   54.36000        1.2198874E-17
   54.50250        1.2217832E-17
   54.64500        1.2228151E-17
   54.78750        1.2225537E-17
   54.93000        1.2213324E-17
   55.07250        1.2200442E-17
   55.21500        1.2196040E-17
   55.35750        1.2204017E-17
   55.50000        1.2220708E-17
   55.64250        1.2237163E-17
   55.78500        1.2244611E-17
   55.92750        1.2239830E-17
   56.07000        1.2227185E-17
   56.21250        1.2216073E-17
   56.35500        1.2215309E-17
   56.49750        1.2227809E-17
   56.64000        1.2248776E-17
   56.78250        1.2268468E-17
   56.92500        1.2277931E-17
   57.06750        1.2274244E-17
   57.21000        1.2262165E-17
   57.35250        1.2251195E-17
   57.49500        1.2249838E-17
   57.63750        1.2260503E-17
   57.78000        1.2278102E-17
   57.92250        1.2293157E-17
   58.06500        1.2297544E-17
   58.20750        1.2289397E-17
   58.35000        1.2274230E-17
   58.49250        1.2261611E-17
   58.63500        1.2259407E-17
   58.77750        1.2269055E-17
   58.92000        1.2284718E-17
   59.06250        1.2296826E-17
   59.20500        1.2297850E-17
   59.34750        1.2286855E-17
   59.49000        1.2270091E-17
   59.63250        1.2257274E-17
   59.77500        1.2255825E-17
   59.91750        1.2266511E-17
   60.06000        1.2283107E-17
   60.20250        1.2296234E-17
   60.34500        1.2299046E-17
   60.48750        1.2291303E-17
   60.63000        1.2279405E-17
   60.77250        1.2272363E-17
   60.91500        1.2276202E-17
   61.05750        1.2290189E-17
   61.20000        1.2307187E-17
   61.34250        1.2317928E-17
   61.48500        1.2316623E-17
   61.62750        1.2304506E-17
   61.77000        1.2289169E-17
   61.91250        1.2280081E-17
   62.05500        1.2282990E-17
   62.19750        1.2296583E-17
   62.34000        1.2313400E-17
   62.48250        1.2324429E-17
   62.62500        1.2324596E-17
   62.76750        1.2315790E-17
   62.91000        1.2305622E-17
   63.05250        1.2302648E-17
   63.19500        1.2310999E-17
   63.33750        1.2327681E-17
   63.48000        1.2344221E-17
   63.62250        1.2351698E-17
   63.76500        1.2346131E-17
   63.90750        1.2330940E-17
   64.05000        1.2315005E-17
   64.19250        1.2307429E-17
   64.33500        1.2312176E-17
   64.47750        1.2325779E-17
   64.62000        1.2339529E-17
   64.76250        1.2344792E-17
   64.90500        1.2338281E-17
   65.04750        1.2324051E-17
   65.19000        1.2311051E-17
   65.33250        1.2307659E-17
   65.47500        1.2316556E-17
   65.61750        1.2333002E-17
   65.76000        1.2347621E-17
   65.90250        1.2352032E-17
   66.04500        1.2343935E-17
   66.18750        1.2328594E-17
   66.33000        1.2315797E-17
   66.47250        1.2314084E-17
   66.61500        1.2325703E-17
   66.75750        1.2345306E-17
   66.90000        1.2363163E-17
   67.04250        1.2370979E-17
   67.18500        1.2366810E-17
   67.32750        1.2356139E-17
   67.47000        1.2348481E-17
   67.61250        1.2351558E-17
   67.75500        1.2366561E-17
   67.89750        1.2387361E-17
   68.04000        1.2404127E-17
   68.18250        1.2409211E-17
   68.32500        1.2401718E-17
   68.46750        1.2388057E-17
   68.61000        1.2378099E-17
   68.75250        1.2379272E-17
   68.89500        1.2392114E-17
   69.03750        1.2409961E-17
   69.18000        1.2422919E-17
   69.32250        1.2423765E-17
   69.46500        1.2412207E-17
   69.60750        1.2394981E-17
   69.75000        1.2381765E-17
   69.89250        1.2379377E-17
   70.03500        1.2387771E-17
   70.17750        1.2400232E-17
   70.32000        1.2407618E-17
   70.46250        1.2404056E-17
   70.60500        1.2390653E-17
   70.74750        1.2374945E-17
   70.89000        1.2366432E-17
   71.03250        1.2370883E-17
   71.17500        1.2386842E-17
   71.31750        1.2406439E-17
   71.46000        1.2420015E-17
   71.60250        1.2421759E-17
   71.74500        1.2412992E-17
   71.88750        1.2401135E-17
   72.03000        1.2395028E-17
   72.17250        1.2399470E-17
   72.31500        1.2412293E-17
   72.45750        1.2425752E-17
   72.60000        1.2431349E-17
   72.74250        1.2425164E-17
   72.88500        1.2410422E-17
   73.02750        1.2395703E-17
   73.17000        1.2389869E-17
   73.31250        1.2396749E-17
   73.45500        1.2412806E-17
   73.59750        1.2429206E-17
   73.74000        1.2437039E-17
   73.88250        1.2432568E-17
   74.02500        1.2419334E-17
   74.16750        1.2405862E-17
   74.31000        1.2400380E-17
   74.45250        1.2405757E-17
   74.59500        1.2417750E-17
   74.73750        1.2427629E-17
   74.88000        1.2427592E-17
   75.02250        1.2415684E-17
   75.16500        1.2397202E-17
   75.30750        1.2381700E-17
   75.45000        1.2377364E-17
   75.59250        1.2386129E-17
   75.73500        1.2402497E-17
   75.87750        1.2416785E-17
   76.02000        1.2420875E-17
   76.16250        1.2413024E-17
   76.30500        1.2398837E-17
   76.44750        1.2387841E-17
   76.59000        1.2387693E-17
   76.73250        1.2399556E-17
   76.87500        1.2417391E-17
   77.01750        1.2431640E-17
   77.16000        1.2435033E-17
   77.30250        1.2427056E-17
   77.44500        1.2414331E-17
   77.58750        1.2406669E-17
   77.73000        1.2411154E-17
   77.87250        1.2427801E-17
   78.01500        1.2449402E-17
   78.15750        1.2465702E-17
   78.30000        1.2469371E-17
   78.44250        1.2460259E-17
   78.58500        1.2445367E-17
   78.72750        1.2434588E-17
   78.87000        1.2434779E-17
   79.01250        1.2445716E-17
   79.15500        1.2460368E-17
   79.29750        1.2469268E-17
   79.44000        1.2466356E-17
   79.58250        1.2452739E-17
   79.72500        1.2436101E-17
   79.86750        1.2426121E-17
   80.01000        1.2428662E-17
   80.15250        1.2442209E-17
   80.29500        1.2458734E-17
   80.43750        1.2468439E-17
   80.58000        1.2465557E-17
   80.72250        1.2451724E-17
   80.86500        1.2434928E-17
   81.00750        1.2424686E-17
   81.15000        1.2426386E-17
   81.29250        1.2438162E-17
   81.43500        1.2452182E-17
   81.57750        1.2459520E-17
   81.72000        1.2455626E-17
   81.86250        1.2443090E-17
   82.00500        1.2430012E-17
   82.14750        1.2425001E-17
   82.29000        1.2431836E-17
   82.43250        1.2447042E-17
   82.57500        1.2461862E-17
   82.71750        1.2467460E-17
   82.86000        1.2460191E-17
   83.00250        1.2443795E-17
   83.14500        1.2427181E-17
   83.28750        1.2419145E-17
   83.43000        1.2423221E-17
   83.57250        1.2435746E-17
   83.71500        1.2448300E-17
   83.85750        1.2452982E-17
   84.00000        1.2447326E-17
   84.14250        1.2435822E-17
   84.28500        1.2427144E-17
   84.42750        1.2428747E-17
   84.57000        1.2442146E-17
   84.71250        1.2461762E-17
   84.85500        1.2478090E-17
   84.99750        1.2483285E-17
   85.14000        1.2475834E-17
   85.28250        1.2461467E-17
   85.42500        1.2449752E-17
   85.56750        1.2448410E-17
   85.71000        1.2458765E-17
   85.85250        1.2475070E-17
   85.99500        1.2488090E-17
   86.13750        1.2490780E-17
   86.28000        1.2482606E-17
   86.42250        1.2469871E-17
   86.56500        1.2461853E-17
   86.70750        1.2465075E-17
   86.85000        1.2479193E-17
   86.99250        1.2497015E-17
   87.13500        1.2508687E-17
   87.27750        1.2507563E-17
   87.42000        1.2494222E-17
   87.56250        1.2476218E-17
   87.70500        1.2463684E-17
   87.84750        1.2463409E-17
   87.99000        1.2474919E-17
   88.13250        1.2490894E-17
   88.27500        1.2501660E-17
   88.41750        1.2501042E-17
   88.56000        1.2490049E-17
   88.70250        1.2476175E-17
   88.84500        1.2468758E-17
   88.98750        1.2473196E-17
   89.13000        1.2487524E-17
   89.27250        1.2503444E-17
   89.41500        1.2511204E-17
   89.55750        1.2505416E-17
   89.70000        1.2488319E-17
   89.84250        1.2468543E-17
   89.98500        1.2456088E-17
   90.12750        1.2456529E-17
   90.27000        1.2467906E-17
   90.41250        1.2482098E-17
   90.55500        1.2489866E-17
   90.69750        1.2486460E-17
   90.84000        1.2474454E-17
   90.98250        1.2462099E-17
   91.12500        1.2458230E-17
   91.26750        1.2466818E-17
   91.41000        1.2484471E-17
   91.55250        1.2502390E-17
   91.69500        1.2511609E-17
   91.83750        1.2508340E-17
   91.98000        1.2496228E-17
   92.12250        1.2484138E-17
   92.26500        1.2480832E-17
   92.40750        1.2489734E-17
   92.55000        1.2506927E-17
   92.69250        1.2523559E-17
   92.83500        1.2531184E-17
   92.97750        1.2526795E-17
   93.12000        1.2514526E-17
   93.26250        1.2503008E-17
   93.40500        1.2500037E-17
   93.54750        1.2507777E-17
   93.69000        1.2521453E-17
   93.83250        1.2532299E-17
   93.97500        1.2532982E-17
   94.11750        1.2522188E-17
   94.26000        1.2505581E-17
   94.40250        1.2492527E-17
   94.54500        1.2490541E-17
   94.68750        1.2500818E-17
   94.83000        1.2517537E-17
   94.97250        1.2531345E-17
   95.11500        1.2534937E-17
   95.25750        1.2527341E-17
   95.40000        1.2514340E-17
   95.54250        1.2504790E-17
   95.68500        1.2505092E-17
   95.82750        1.2515186E-17
   95.97000        1.2528536E-17
   96.11250        1.2536117E-17
   96.25500        1.2532002E-17
   96.39750        1.2517159E-17
   96.54000        1.2499101E-17
   96.68250        1.2487576E-17
   96.82500        1.2488842E-17
   96.96750        1.2501974E-17
   97.11000        1.2519414E-17
   97.25250        1.2531470E-17
   97.39500        1.2532036E-17
   97.53750        1.2522131E-17
   97.68000        1.2509124E-17
   97.82250        1.2502132E-17
   97.96500        1.2506378E-17
   98.10750        1.2519936E-17
   98.25000        1.2534852E-17
   98.39250        1.2541961E-17
   98.53500        1.2536530E-17
   98.67750        1.2521275E-17
   98.82000        1.2504938E-17
   98.96250        1.2497209E-17
   99.10500        1.2503035E-17
   99.24750        1.2519704E-17
   99.39000        1.2538452E-17