  -30.000000        4.89657587E-18
  -29.857500        4.90192318E-18
  -29.715000        4.91169963E-18
  -29.572500        4.92431744E-18
  -29.430000        4.93782985E-18
  -29.287500        4.95030332E-18
  -29.145000        4.96019599E-18
  -29.002501        4.96664179E-18
  -28.860001        4.96960434E-18
  -28.717501        4.96985953E-18
  -28.575001        4.96881521E-18
  -28.432501        4.96820558E-18
  -28.290001        4.96972180E-18
  -28.147499        4.97465014E-18
  -28.004999        4.98359817E-18
  -27.862499        4.99635329E-18
  -27.719999        5.01191587E-18
  -27.577499        5.02868696E-18
  -27.434999        5.04478679E-18
  -27.292500        5.05842410E-18
  -27.150000        5.06826010E-18
  -27.007500        5.07367193E-18
  -26.865000        5.07488375E-18
  -26.722500        5.07292168E-18
  -26.580000        5.06940782E-18
  -26.437500        5.06624344E-18
  -26.295000        5.06522807E-18
  -26.152500        5.06770879E-18
  -26.010000        5.07431383E-18
  -25.867500        5.08483763E-18
  -25.725000        5.09828883E-18
  -25.582500        5.11309329E-18
  -25.440001        5.12741551E-18
  -25.297501        5.13953123E-18
  -25.155001        5.14817526E-18
  -25.012501        5.15279465E-18
  -24.870001        5.15365782E-18
  -24.727501        5.15179831E-18
  -24.584999        5.14879937E-18
  -24.442499        5.14647003E-18
  -24.299999        5.14647458E-18
  -24.157499        5.14999341E-18
  -24.014999        5.15748229E-18
  -23.872499        5.16857891E-18
  -23.730000        5.18218024E-18
  -23.587500        5.19666418E-18
  -23.445000        5.21022001E-18
  -23.302500        5.22121283E-18
  -23.160000        5.22851725E-18
  -23.017500        5.23174367E-18
  -22.875000        5.23131767E-18
  -22.732500        5.22839731E-18
  -22.590000        5.22464025E-18
  -22.447500        5.22186672E-18
  -22.305000        5.22169466E-18
  -22.162500        5.22520853E-18
  -22.020000        5.23274083E-18
  -21.877501        5.24380231E-18
  -21.735001        5.25718319E-18
  -21.592501        5.27119977E-18
  -21.450001        5.28403637E-18
  -21.307501        5.29411350E-18
  -21.165001        5.30040793E-18
  -21.022499        5.30265662E-18
  -20.879999        5.30140840E-18
  -20.737499        5.29790819E-18
  -20.594999        5.29384384E-18
  -20.452499        5.29100247E-18
  -20.309999        5.29090486E-18
  -20.167500        5.29449896E-18
  -20.025000        5.30196427E-18
  -19.882500        5.31267502E-18
  -19.740000        5.32532716E-18
  -19.597500        5.33820967E-18
  -19.455000        5.34955693E-18
  -19.312500        5.35791683E-18
  -19.170000        5.36245640E-18
  -19.027500        5.36314048E-18
  -18.885000        5.36074538E-18
  -18.742500        5.35670915E-18
  -18.600000        5.35283877E-18
  -18.457500        5.35094453E-18
  -18.315001        5.35246861E-18
  -18.172501        5.35818732E-18
  -18.030001        5.36804401E-18
  -17.887501        5.38114365E-18
  -17.745001        5.39592289E-18
  -17.602501        5.41044859E-18
  -17.459999        5.42279220E-18
  -17.317499        5.43141473E-18
  -17.174999        5.43546667E-18
  -17.032499        5.43496333E-18
  -16.889999        5.43078235E-18
  -16.747499        5.42449081E-18
  -16.605000        5.41803591E-18
  -16.462500        5.41335903E-18
  -16.320000        5.41201279E-18
  -16.177500        5.41485747E-18
  -16.035000        5.42190050E-18
  -15.892500        5.43230353E-18
  -15.750000        5.44456276E-18
  -15.607500        5.45681496E-18
  -15.465000        5.46721593E-18
  -15.322500        5.47431107E-18
  -15.180000        5.47732656E-18
  -15.037500        5.47632071E-18
  -14.895000        5.47216785E-18
  -14.752500        5.46637882E-18
  -14.610000        5.46079122E-18
  -14.467500        5.45718802E-18
  -14.325000        5.45693449E-18
  -14.182500        5.46068948E-18
  -14.040000        5.46826769E-18
  -13.897500        5.47867445E-18
  -13.755000        5.49030006E-18
  -13.612500        5.50124697E-18
  -13.470000        5.50970820E-18
  -13.327500        5.51433421E-18
  -13.185000        5.51450171E-18
  -13.042500        5.51044398E-18
  -12.900000        5.50320615E-18
  -12.757500        5.49444630E-18
  -12.615000        5.48611370E-18
  -12.472500        5.48007156E-18
  -12.330000        5.47773725E-18
  -12.187500        5.47981141E-18
  -12.045000        5.48615051E-18
  -11.902500        5.49580950E-18
  -11.760000        5.50724403E-18
  -11.617500        5.51863803E-18
  -11.475000        5.52827551E-18
  -11.332500        5.53489626E-18
  -11.190000        5.53795021E-18
  -11.047500        5.53770040E-18
  -10.905000        5.53516055E-18
  -10.762500        5.53187416E-18
  -10.620000        5.52958783E-18
  -10.477500        5.52988189E-18
  -10.335000        5.53382961E-18
  -10.192500        5.54176269E-18
  -10.050000        5.55317613E-18
  -9.9075003        5.56680641E-18
  -9.7650003        5.58085773E-18
  -9.6225004        5.59334112E-18
  -9.4799995        5.60245707E-18
  -9.3374996        5.60694700E-18
  -9.1949997        5.60634068E-18
  -9.0524998        5.60105334E-18
  -8.9099998        5.59230218E-18
  -8.7674999        5.58187433E-18
  -8.6250000        5.57177446E-18
  -8.4825001        5.56384221E-18
  -8.3400002        5.55940769E-18
  -8.1975002        5.55905076E-18
  -8.0550003        5.56251748E-18
  -7.9124999        5.56879950E-18
  -7.7700000        5.57636324E-18
  -7.6275001        5.58347699E-18
  -7.4850001        5.58857201E-18
  -7.3425002        5.59057131E-18
  -7.1999998        5.58910885E-18
  -7.0574999        5.58461106E-18
  -6.9150000        5.57820785E-18
  -6.7725000        5.57150479E-18
  -6.6300001        5.56624889E-18
  -6.4875002        5.56396463E-18
  -6.3449998        5.56563678E-18
  -6.2024999        5.57150149E-18
  -6.0599999        5.58099380E-18
  -5.9175000        5.59285888E-18
  -5.7750001        5.60540555E-18
  -5.6325002        5.61684050E-18
  -5.4899998        5.62562639E-18
  -5.3474998        5.63078345E-18
  -5.2049999        5.63207509E-18
  -5.0625000        5.63004313E-18
  -4.9200001        5.62589151E-18
  -4.7775002        5.62123531E-18
  -4.6350002        5.61776280E-18
  -4.4924998        5.61689137E-18
  -4.3499999        5.61946555E-18
  -4.2075000        5.62558173E-18
  -4.0650001        5.63456367E-18
  -3.9224999        5.64509947E-18
  -3.7800000        5.65551574E-18
  -3.6375000        5.66412710E-18
  -3.4949999        5.66959353E-18
  -3.3525000        5.67120570E-18
  -3.2100000        5.66903807E-18
  -3.0675001        5.66394595E-18
  -2.9250000        5.65739964E-18
  -2.7825000        5.65119620E-18
  -2.6400001        5.64710124E-18
  -2.4974999        5.64649823E-18
  -2.3550000        5.65010639E-18
  -2.2125001        5.65782978E-18
  -2.0699999        5.66876262E-18
  -1.9275000        5.68136017E-18
  -1.7850000        5.69373314E-18
  -1.6425000        5.70402244E-18
  -1.5000000        5.71076437E-18
  -1.3575000        5.71318553E-18
  -1.2150000        5.71135498E-18
  -1.0725000        5.70616690E-18
 -0.93000001        5.69915779E-18
 -0.78750002        5.69219003E-18
 -0.64499998        5.68708178E-18
 -0.50250000        5.68524047E-18
 -0.36000001        5.68738908E-18
 -0.21750000        5.69342832E-18
 -7.50000030E-02    5.70246155E-18
  6.75000027E-02    5.71297915E-18
  0.20999999        5.72316009E-18
  0.35249999        5.73123544E-18
  0.49500000        5.73584656E-18
  0.63749999        5.73631640E-18
  0.77999997        5.73279385E-18
  0.92250001        5.72622686E-18
   1.0650001        5.71817426E-18
   1.2075000        5.71049264E-18
   1.3500000        5.70495798E-18
   1.4924999        5.70291153E-18
   1.6350000        5.70498982E-18
   1.7775000        5.71100426E-18
   1.9200000        5.71999199E-18
   2.0625000        5.73041653E-18
   2.2049999        5.74048497E-18
   2.3475001        5.74850986E-18
   2.4900000        5.75324423E-18
   2.6324999        5.75412642E-18
   2.7750001        5.75139093E-18
   2.9175000        5.74601964E-18
   3.0599999        5.73954364E-18
   3.2025001        5.73373683E-18
   3.3450000        5.73025523E-18
   3.4875000        5.73030238E-18
   3.6300001        5.73437707E-18
   3.7725000        5.74217449E-18
   3.9150000        5.75264866E-18
   4.0574999        5.76423126E-18
   4.1999998        5.77515583E-18
   4.3425002        5.78382427E-18
   4.4850001        5.78913105E-18
   4.6275001        5.79068367E-18
   4.7700000        5.78887421E-18
   4.9124999        5.78479373E-18
   5.0549998        5.78000435E-18
   5.1975002        5.77621793E-18
   5.3400002        5.77494904E-18
   5.4825001        5.77719773E-18
   5.6250000        5.78323987E-18
   5.7674999        5.79255516E-18
   5.9099998        5.80391318E-18
   6.0524998        5.81561324E-18
   6.1950002        5.82581982E-18
   6.3375001        5.83293440E-18
   6.4800000        5.83592259E-18
   6.6224999        5.83453169E-18
   6.7649999        5.82934940E-18
   6.9074998        5.82169012E-18
   7.0500002        5.81333932E-18
   7.1925001        5.80620613E-18
   7.3350000        5.80195525E-18
   7.4775000        5.80169137E-18
   7.6199999        5.80575655E-18
   7.7624998        5.81367557E-18
   7.9050002        5.82426058E-18
   8.0474997        5.83584649E-18
   8.1899996        5.84662548E-18
   8.3325005        5.85499986E-18
   8.4750004        5.85990173E-18
   8.6175003        5.86100022E-18
   8.7600002        5.85875608E-18
   8.9025002        5.85431826E-18
   9.0450001        5.84926998E-18
   9.1875000        5.84529082E-18
   9.3299999        5.84379818E-18
   9.4724998        5.84564858E-18
   9.6149998        5.85096156E-18
   9.7574997        5.85909688E-18
   9.8999996        5.86879020E-18
   10.042500        5.87840989E-18
   10.185000        5.88629044E-18
   10.327500        5.89106741E-18
   10.470000        5.89195663E-18
   10.612500        5.88891881E-18
   10.755000        5.88267856E-18
   10.897500        5.87459163E-18
   11.040000        5.86638393E-18
   11.182500        5.85981033E-18
   11.325000        5.85629894E-18
   11.467500        5.85666828E-18
   11.610000        5.86095804E-18
   11.752500        5.86843327E-18
   11.895000        5.87774277E-18
   12.037500        5.88720944E-18
   12.180000        5.89518015E-18
   12.322500        5.90037071E-18
   12.465000        5.90212640E-18
   12.607500        5.90055021E-18
   12.750000        5.89648296E-18
   12.892500        5.89133004E-18
   13.035000        5.88677848E-18
   13.177500        5.88445534E-18
   13.320000        5.88559272E-18
   13.462500        5.89076342E-18
   13.605000        5.89974371E-18
   13.747500        5.91153600E-18
   13.890000        5.92454962E-18
   14.032500        5.93691142E-18
   14.175000        5.94684007E-18
   14.317500        5.95300463E-18
   14.460000        5.95479878E-18
   14.602500        5.95245952E-18
   14.745000        5.94702204E-18
   14.887500        5.94010640E-18
   15.030000        5.93360187E-18
   15.172500        5.92929101E-18
   15.315000        5.92850892E-18
   15.457500        5.93188547E-18
   15.600000        5.93923124E-18
   15.742500        5.94957100E-18
   15.885000        5.96133889E-18
   16.027500        5.97268367E-18
   16.170000        5.98183477E-18
   16.312500        5.98745794E-18
   16.455000        5.98892701E-18
   16.597500        5.98645044E-18
   16.740000        5.98102868E-18
   16.882500        5.97424621E-18
   17.025000        5.96794434E-18
   17.167500        5.96383987E-18
   17.309999        5.96318185E-18
   17.452499        5.96650256E-18
   17.594999        5.97351954E-18
   17.737499        5.98320375E-18
   17.879999        5.99398977E-18
   18.022499        6.00409006E-18
   18.165001        6.01184695E-18
   18.307501        6.01606226E-18
   18.450001        6.01623431E-18
   18.592501        6.01266338E-18
   18.735001        6.00639541E-18
   18.877501        5.99901903E-18
   19.020000        5.99234244E-18
   19.162500        5.98802787E-18
   19.305000        5.98725280E-18
   19.447500        5.99046805E-18
   19.590000        5.99731669E-18
   19.732500        6.00671512E-18
   19.875000        6.01708548E-18
   20.017500        6.02668616E-18
   20.160000        6.03396534E-18
   20.302500        6.03786881E-18
   20.445000        6.03804707E-18
   20.587500        6.03491288E-18
   20.730000        6.02955689E-18
   20.872499        6.02352798E-18
   21.014999        6.01851981E-18
   21.157499        6.01603000E-18
   21.299999        6.01704950E-18
   21.442499        6.02185335E-18
   21.584999        6.02993615E-18
   21.727501        6.04010427E-18
   21.870001        6.05072485E-18
   22.012501        6.06005958E-18
   22.155001        6.06662905E-18
   22.297501        6.06951757E-18
   22.440001        6.06855597E-18
   22.582500        6.06435141E-18
   22.725000        6.05815790E-18
   22.867500        6.05161614E-18
   23.010000        6.04642806E-18
   23.152500        6.04401766E-18
   23.295000        6.04524933E-18
   23.437500        6.05025749E-18
   23.580000        6.05841391E-18
   23.722500        6.06844513E-18
   23.865000        6.07867487E-18
   24.007500        6.08736523E-18
   24.150000        6.09306202E-18
   24.292500        6.09490167E-18
   24.434999        6.09279071E-18
   24.577499        6.08742975E-18
   24.719999        6.08017083E-18
   24.862499        6.07273737E-18
   25.004999        6.06687431E-18
   25.147499        6.06399779E-18
   25.290001        6.06491927E-18
   25.432501        6.06969996E-18
   25.575001        6.07765330E-18
   25.717501        6.08748931E-18
   25.860001        6.09758008E-18
   26.002501        6.10627954E-18
   26.145000        6.11225137E-18
   26.287500        6.11473664E-18
   26.430000        6.11371135E-18
   26.572500        6.10989225E-18
   26.715000        6.10459871E-18
   26.857500        6.09947846E-18
   27.000000        6.09616188E-18
   27.142500        6.09591828E-18
   27.285000        6.09938747E-18
   27.427500        6.10644126E-18
   27.570000        6.11621605E-18
   27.712500        6.12729158E-18
   27.855000        6.13798496E-18
   27.997499        6.14669104E-18
   28.139999        6.15219923E-18
   28.282499        6.15392928E-18
   28.424999        6.15203959E-18
   28.567499        6.14739704E-18
   28.709999        6.14140618E-18
   28.852501        6.13573007E-18
   28.995001        6.13196102E-18
   29.137501        6.13129514E-18
   29.280001        6.13428085E-18
   29.422501        6.14069853E-18
   29.565001        6.14960064E-18
   29.707500        6.15950572E-18
   29.850000        6.16870893E-18
   29.992500        6.17563781E-18
   30.135000        6.17918021E-18
   30.277500        6.17890889E-18
   30.420000        6.17516466E-18
   30.562500        6.16897652E-18
   30.705000        6.16185243E-18
   30.847500        6.15547404E-18
   30.990000        6.15136668E-18
   31.132500        6.15059574E-18
   31.275000        6.15355498E-18
   31.417500        6.15988209E-18
   31.559999        6.16852033E-18
   31.702499        6.17792414E-18
   31.844999        6.18636676E-18
   31.987499        6.19229723E-18
   32.130001        6.19466875E-18
   32.272499        6.19316494E-18
   32.415001        6.18827258E-18
   32.557499        6.18119026E-18
   32.700001        6.17358309E-18
   32.842499        6.16724441E-18
   32.985001        6.16373799E-18
   33.127499        6.16408954E-18
   33.270000        6.16859147E-18
   33.412498        6.17675119E-18
   33.555000        6.18738626E-18
   33.697498        6.19884643E-18
   33.840000        6.20932681E-18
   33.982498        6.21720694E-18
   34.125000        6.22136270E-18
   34.267502        6.22138793E-18
   34.410000        6.21767678E-18
   34.552502        6.21134596E-18
   34.695000        6.20400969E-18
   34.837502        6.19744932E-18
   34.980000        6.19324807E-18
   35.122501        6.19247383E-18
   35.264999        6.19547443E-18
   35.407501        6.20182428E-18
   35.549999        6.21043606E-18
   35.692501        6.21979850E-18
   35.834999        6.22828910E-18
   35.977501        6.23449915E-18
   36.119999        6.23750885E-18
   36.262501        6.23706341E-18
   36.404999        6.23362400E-18
   36.547501        6.22827421E-18
   36.689999        6.22251124E-18
   36.832500        6.21794686E-18
   36.974998        6.21597858E-18
   37.117500        6.21749522E-18
   37.259998        6.22268908E-18
   37.402500        6.23100762E-18
   37.544998        6.24127087E-18
   37.687500        6.25191958E-18
   37.830002        6.26134944E-18
   37.972500        6.26823985E-18
   38.115002        6.27182320E-18
   38.257500        6.27203082E-18
   38.400002        6.26949013E-18
   38.542500        6.26538566E-18
   38.685001        6.26121461E-18
   38.827499        6.25848202E-18
   38.970001        6.25839516E-18
   39.112499        6.26161579E-18
   39.255001        6.26811164E-18
   39.397499        6.27714486E-18
   39.540001        6.28740190E-18
   39.682499        6.29725238E-18
   39.825001        6.30508124E-18
   39.967499        6.30962866E-18
   40.110001        6.31025980E-18
   40.252499        6.30710286E-18
   40.395000        6.30102516E-18
   40.537498        6.29345397E-18
   40.680000        6.28607924E-18
   40.822498        6.28051149E-18
   40.965000        6.27796336E-18
   41.107498        6.27901512E-18
   41.250000        6.28351085E-18
   41.392502        6.29058903E-18
   41.535000        6.29885422E-18
   41.677502        6.30664667E-18
   41.820000        6.31236787E-18
   41.962502        6.31480433E-18
   42.105000        6.31338117E-18
   42.247501        6.30829773E-18
   42.389999        6.30050279E-18
   42.532501        6.29151258E-18
   42.674999        6.28310966E-18
   42.817501        6.27698439E-18
   42.959999        6.27439408E-18
   43.102501        6.27592477E-18
   43.244999        6.28139037E-18
   43.387501        6.28989751E-18
   43.529999        6.30004288E-18
   43.672501        6.31019942E-18
   43.814999        6.31883684E-18
   43.957500        6.32481032E-18
   44.099998        6.32756938E-18
   44.242500        6.32725588E-18
   44.384998        6.32466722E-18
   44.527500        6.32108966E-18
   44.669998        6.31803075E-18
   44.812500        6.31689958E-18
   44.955002        6.31869994E-18
   45.097500        6.32380488E-18
   45.240002        6.33186493E-18
   45.382500        6.34187630E-18
   45.525002        6.35239100E-18
   45.667500        6.36182210E-18
   45.810001        6.36876877E-18
   45.952499        6.37230083E-18
   46.095001        6.37213043E-18
   46.237499        6.36865834E-18
   46.380001        6.36288627E-18
   46.522499        6.35621671E-18
   46.665001        6.35018698E-18
   46.807499        6.34617640E-18
   46.950001        6.34514490E-18
   47.092499        6.34743991E-18
   47.235001        6.35272684E-18
   47.377499        6.36005070E-18
   47.520000        6.36803133E-18
   47.662498        6.37515253E-18
   47.805000        6.38009328E-18
   47.947498        6.38201482E-18
   48.090000        6.38074510E-18
   48.232498        6.37681599E-18
   48.375000        6.37134957E-18
   48.517502        6.36581987E-18
   48.660000        6.36175097E-18
   48.802502        6.36040845E-18
   48.945000        6.36255002E-18
   49.087502        6.36827618E-18
   49.230000        6.37699673E-18
   49.372501        6.38753046E-18
   49.514999        6.39831152E-18
   49.657501        6.40767355E-18
   49.799999        6.41416651E-18
   49.942501        6.41684616E-18
   50.084999        6.41547014E-18
   50.227501        6.41055752E-18
   50.369999        6.40329446E-18
   50.512501        6.39529438E-18
   50.654999        6.38827079E-18
   50.797501        6.38369565E-18
   50.939999        6.38251320E-18
   51.082500        6.38497406E-18
   51.224998        6.39061336E-18
   51.367500        6.39836818E-18
   51.509998        6.40680377E-18
   51.652500        6.41440184E-18
   51.794998        6.41985544E-18
   51.937500        6.42232044E-18
   52.080002        6.42158549E-18
   52.222500        6.41811795E-18
   52.365002        6.41298157E-18
   52.507500        6.40762682E-18
   52.650002        6.40359555E-18
   52.792500        6.40219596E-18
   52.935001        6.40422173E-18
   53.077499        6.40978162E-18
   53.220001        6.41827883E-18
   53.362499        6.42854497E-18
   53.505001        6.43908987E-18
   53.647499        6.44841096E-18
   53.790001        6.45529351E-18
   53.932499        6.45903278E-18
   54.075001        6.45955101E-18
   54.217499        6.45739124E-18
   54.360001        6.45358993E-18
   54.502499        6.44946561E-18
   54.645000        6.44635004E-18
   54.787498        6.44531358E-18
   54.930000        6.44693733E-18
   55.072498        6.45117539E-18
   55.215000        6.45734988E-18
   55.357498        6.46428579E-18
   55.500000        6.47056533E-18
   55.642502        6.47484062E-18
   55.785000        6.47614343E-18
   55.927502        6.47410194E-18
   56.070000        6.46903588E-18
   56.212502        6.46188738E-18
   56.355000        6.45403454E-18
   56.497501        6.44701302E-18
   56.639999        6.44222364E-18
   56.782501        6.44066606E-18
   56.924999        6.44275594E-18
   57.067501        6.44824511E-18
   57.209999        6.45626462E-18
   57.352501        6.46547652E-18
   57.494999        6.47432694E-18
   57.637501        6.48134681E-18
   57.779999        6.48545334E-18
   57.922501        6.48618002E-18
   58.064999        6.48378327E-18
   58.207500        6.47919200E-18
   58.349998        6.47381078E-18
   58.492500        6.46921662E-18
   58.634998        6.46682400E-18
   58.777500        6.46758831E-18
   58.919998        6.47182306E-18
   59.062500        6.47914485E-18
   59.205002        6.48855941E-18
   59.347500        6.49865970E-18
   59.490002        6.50789475E-18
   59.632500        6.51485755E-18
   59.775002        6.51855050E-18
   59.917500        6.51858400E-18
   60.060001        6.51526411E-18
   60.202499        6.50954787E-18
   60.345001        6.50287170E-18
   60.487499        6.49686058E-18
   60.630001        6.49300013E-18
   60.772499        6.49231936E-18
   60.915001        6.49517933E-18
   61.057499        6.50120328E-18
   61.200001        6.50937334E-18
   61.342499        6.51825685E-18
   61.485001        6.52631317E-18
   61.627499        6.53221262E-18
   61.770000        6.53509411E-18
   61.912498        6.53472353E-18
   62.055000        6.53153723E-18
   62.197498        6.52655099E-18
   62.340000        6.52117307E-18
   62.482498        6.51693046E-18
   62.625000        6.51517064E-18
   62.767502        6.51677537E-18
   62.910000        6.52196427E-18
   63.052502        6.53021995E-18
   63.195000        6.54037359E-18
   63.337502        6.55083949E-18
   63.480000        6.55993765E-18
   63.622501        6.56624945E-18
   63.764999        6.56890387E-18
   63.907501        6.56774499E-18
   64.050003        6.56334563E-18
   64.192497        6.55686798E-18
   64.334999        6.54982330E-18
   64.477501        6.54376668E-18
   64.620003        6.54000467E-18
   64.762497        6.53934912E-18
   64.904999        6.54196219E-18
   65.047501        6.54732645E-18
   65.190002        6.55433433E-18
   65.332497        6.56150681E-18
   65.474998        6.56729418E-18
   65.617500        6.57041017E-18
   65.760002        6.57011983E-18
   65.902496        6.56641530E-18
   66.044998        6.56003650E-18
   66.187500        6.55231642E-18
   66.330002        6.54490571E-18
   66.472504        6.53942523E-18
   66.614998        6.53713973E-18
   66.757500        6.53871426E-18
   66.900002        6.54409714E-18
   67.042503        6.55254183E-18
   67.184998        6.56275916E-18
   67.327499        6.57315145E-18
   67.470001        6.58210981E-18
   67.612503        6.58830912E-18
   67.754997        6.59095940E-18
   67.897499        6.58996720E-18
   68.040001        6.58596199E-18
   68.182503        6.58017586E-18
   68.324997        6.57419204E-18
   68.467499        6.56961111E-18
   68.610001        6.56770943E-18
   68.752502        6.56917271E-18
   68.894997        6.57396415E-18
   69.037498        6.58135708E-18
   69.180000        6.59010617E-18
   69.322502        6.59872043E-18
   69.464996        6.60576759E-18
   69.607498        6.61015206E-18
   69.750000        6.61131384E-18
   69.892502        6.60932860E-18
   70.035004        6.60489243E-18
   70.177498        6.59919357E-18
   70.320000        6.59369365E-18
   70.462502        6.58984188E-18
   70.605003        6.58878227E-18
   70.747498        6.59110540E-18
   70.889999        6.59671369E-18
   71.032501        6.60482998E-18
   71.175003        6.61416099E-18
   71.317497        6.62317437E-18
   71.459999        6.63042626E-18
   71.602501        6.63485581E-18
   71.745003        6.63599318E-18
   71.887497        6.63402615E-18
   72.029999        6.62973763E-18
   72.172501        6.62433325E-18
   72.315002        6.61920100E-18
   72.457497        6.61564702E-18
   72.599998        6.61465193E-18
   72.742500        6.61668389E-18
   72.885002        6.62159942E-18
   73.027496        6.62865692E-18
   73.169998        6.63665286E-18
   73.312500        6.64416283E-18
   73.455002        6.64983977E-18
   73.597504        6.65270885E-18
   73.739998        6.65238873E-18
   73.882500        6.64916686E-18
   74.025002        6.64393371E-18
   74.167503        6.63798049E-18
   74.309998        6.63271507E-18
   74.452499        6.62937036E-18
   74.595001        6.62876404E-18
   74.737503        6.63115501E-18
   74.879997        6.63620370E-18
   75.022499        6.64304986E-18
   75.165001        6.65047174E-18
   75.307503        6.65711359E-18
   75.449997        6.66174993E-18
   75.592499        6.66352713E-18
   75.735001        6.66216063E-18
   75.877502        6.65801356E-18
   76.019997        6.65204587E-18
   76.162498        6.64562653E-18
   76.305000        6.64024489E-18
   76.447502        6.63719301E-18
   76.589996        6.63729103E-18
   76.732498        6.64072342E-18
   76.875000        6.64701909E-18
   77.017502        6.65516806E-18
   77.160004        6.66384560E-18
   77.302498        6.67167321E-18
   77.445000        6.67748291E-18
   77.587502        6.68052818E-18
   77.730003        6.68061627E-18
   77.872498        6.67814672E-18
   78.014999        6.67404184E-18
   78.157501        6.66957672E-18
   78.300003        6.66613275E-18
   78.442497        6.66490852E-18
   78.584999        6.66666091E-18
   78.727501        6.67152597E-18
   78.870003        6.67898011E-18
   79.012497        6.68794840E-18
   79.154999        6.69704366E-18
   79.297501        6.70486548E-18
   79.440002        6.71029386E-18
   79.582497        6.71271171E-18
   79.724998        6.71210455E-18
   79.867500        6.70904233E-18
   80.010002        6.70454867E-18
   80.152496        6.69989661E-18
   80.294998        6.69636662E-18
   80.437500        6.69500797E-18
   80.580002        6.69642990E-18
   80.722504        6.70067044E-18
   80.864998        6.70717084E-18
   81.007500        6.71486734E-18
   81.150002        6.72240337E-18
   81.292503        6.72841242E-18
   81.434998        6.73181544E-18
   81.577499        6.73205863E-18
   81.720001        6.72922678E-18
   81.862503        6.72401637E-18
   82.004997        6.71756436E-18
   82.147499        6.71120127E-18
   82.290001        6.70617160E-18
   82.432503        6.70339227E-18
   82.574997        6.70328929E-18
   82.717499        6.70573402E-18
   82.860001        6.71007341E-18
   83.002502        6.71525653E-18
   83.144997        6.72003432E-18
   83.287498        6.72320036E-18
   83.430000        6.72384225E-18
   83.572502        6.72154848E-18
   83.714996        6.71652004E-18
   83.857498        6.70955684E-18
   84.000000        6.70190252E-18
   84.142502        6.69498109E-18
   84.285004        6.69009535E-18
   84.427498        6.68814940E-18
   84.570000        6.68946958E-18
   84.712502        6.69375852E-18
   84.855003        6.70017413E-18
   84.997498        6.70751577E-18
   85.139999        6.71445954E-18
   85.282501        6.71980395E-18
   85.425003        6.72268295E-18
   85.567497        6.72272224E-18
   85.709999        6.72011042E-18
   85.852501        6.71557582E-18
   85.995003        6.71026118E-18
   86.137497        6.70550283E-18
   86.279999        6.70255806E-18
   86.422501        6.70233390E-18
   86.565002        6.70518064E-18
   86.707497        6.71080795E-18
   86.849998        6.71835060E-18
   86.992500        6.72655747E-18
   87.135002        6.73406579E-18
   87.277496        6.73968400E-18
   87.419998        6.74262007E-18
   87.562500        6.74262173E-18
   87.705002        6.73999708E-18
   87.847504        6.73554851E-18
   87.989998        6.73041585E-18
   88.132500        6.72587380E-18
   88.275002        6.72310275E-18
   88.417503        6.72296874E-18
   88.559998        6.72584940E-18
   88.702499        6.73154495E-18
   88.845001        6.73930763E-18
   88.987503        6.74799054E-18
   89.129997        6.75629585E-18
   89.272499        6.76306219E-18
   89.415001        6.76752400E-18
   89.557503        6.76947367E-18
   89.699997        6.76929127E-18
   89.842499        6.76784164E-18
   89.985001        6.76627041E-18
   90.127502        6.76575756E-18
   90.269997        6.76727543E-18
   90.412498        6.77139645E-18
   90.555000        6.77818222E-18
   90.697502        6.78715631E-18
   90.839996        6.79737323E-18
   90.982498        6.80757360E-18
   91.125000        6.81641120E-18
   91.267502        6.82271266E-18
   91.410004        6.82572526E-18
   91.552498        6.82529264E-18
   91.695000        6.82190368E-18
   91.837502        6.81660394E-18
   91.980003        6.81077562E-18