  -30.000000        9.84048302E-18
  -29.857500        9.85754445E-18
  -29.715000        9.88337730E-18
  -29.572500        9.90645398E-18
  -29.430000        9.91866730E-18
  -29.287500        9.91985927E-18
  -29.145000        9.91752993E-18
  -29.002501        9.92193798E-18
  -28.860001        9.93959332E-18
  -28.717501        9.96905832E-18
  -28.575001        1.00016095E-17
  -28.432501        1.00263447E-17
  -28.290001        1.00366679E-17
  -28.147499        1.00342377E-17
  -28.004999        1.00279991E-17
  -27.862499        1.00288775E-17
  -27.719999        1.00433193E-17
  -27.577499        1.00695409E-17
  -27.434999        1.00987189E-17
  -27.292500        1.01203679E-17
  -27.150000        1.01286620E-17
  -27.007500        1.01258843E-17
  -26.865000        1.01209642E-17
  -26.722500        1.01240058E-17
  -26.580000        1.01401474E-17
  -26.437500        1.01664550E-17
  -26.295000        1.01937255E-17
  -26.152500        1.02120790E-17
  -26.010000        1.02169553E-17
  -25.867500        1.02118772E-17
  -25.725000        1.02063127E-17
  -25.582500        1.02099482E-17
  -25.440001        1.02268293E-17
  -25.297501        1.02529285E-17
  -25.155001        1.02785910E-17
  -25.012501        1.02943794E-17
  -24.870001        1.02967674E-17
  -24.727501        1.02902517E-17
  -24.584999        1.02845988E-17
  -24.442499        1.02889125E-17
  -24.299999        1.03061328E-17
  -24.157499        1.03312848E-17
  -24.014999        1.03545551E-17
  -23.872499        1.03673061E-17
  -23.730000        1.03673772E-17
  -23.587500        1.03604405E-17
  -23.445000        1.03565792E-17
  -23.302500        1.03641380E-17
  -23.160000        1.03845950E-17
  -23.017500        1.04115545E-17
  -22.875000        1.04345178E-17
  -22.732500        1.04451578E-17
  -22.590000        1.04423165E-17
  -22.447500        1.04327079E-17
  -22.305000        1.04268755E-17
  -22.162500        1.04328469E-17
  -22.020000        1.04513154E-17
  -21.877501        1.04752457E-17
  -21.735001        1.04941749E-17
  -21.592501        1.05005905E-17
  -21.450001        1.04945339E-17
  -21.307501        1.04836259E-17
  -21.165001        1.04784783E-17
  -21.022499        1.04862373E-17
  -20.879999        1.05061699E-17
  -20.737499        1.05299629E-17
  -20.594999        1.05466148E-17
  -20.452499        1.05489798E-17
  -20.309999        1.05380643E-17
  -20.167500        1.05224810E-17
  -20.025000        1.05133804E-17
  -19.882500        1.05178885E-17
  -19.740000        1.05349855E-17
  -19.597500        1.05562838E-17
  -19.455000        1.05712218E-17
  -19.312500        1.05735313E-17
  -19.170000        1.05650808E-17
  -19.027500        1.05547634E-17
  -18.885000        1.05530958E-17
  -18.742500        1.05657682E-17
  -18.600000        1.05900476E-17
  -18.457500        1.06161890E-17
  -18.315001        1.06330511E-17
  -18.172501        1.06345566E-17
  -18.030001        1.06231497E-17
  -17.887501        1.06082100E-17
  -17.745001        1.06003857E-17
  -17.602501        1.06052810E-17
  -17.459999        1.06202579E-17
  -17.317499        1.06362639E-17
  -17.174999        1.06435282E-17
  -17.032499        1.06376800E-17
  -16.889999        1.06225715E-17
  -16.747499        1.06081058E-17
  -16.605000        1.06043818E-17
  -16.462500        1.06156795E-17
  -16.320000        1.06379099E-17
  -16.177500        1.06610569E-17
  -16.035000        1.06751248E-17
  -15.892500        1.06760182E-17
  -15.750000        1.06678299E-17
  -15.607500        1.06601859E-17
  -15.465000        1.06622911E-17
  -15.322500        1.06772895E-17
  -15.180000        1.07003397E-17
  -15.037500        1.07215544E-17
  -14.895000        1.07319984E-17
  -14.752500        1.07290983E-17
  -14.610000        1.07181845E-17
  -14.467500        1.07092410E-17
  -14.325000        1.07108383E-17
  -14.182500        1.07249302E-17
  -14.040000        1.07456750E-17
  -13.897500        1.07630003E-17
  -13.755000        1.07687269E-17
  -13.612500        1.07615677E-17
  -13.470000        1.07479514E-17
  -13.327500        1.07381783E-17
  -13.185000        1.07402330E-17
  -13.042500        1.07549974E-17
  -12.900000        1.07757654E-17
  -12.757500        1.07923520E-17
  -12.615000        1.07972952E-17
  -12.472500        1.07903899E-17
  -12.330000        1.07788003E-17
  -12.187500        1.07726726E-17
  -12.045000        1.07789012E-17
  -11.902500        1.07968494E-17
  -11.760000        1.08186315E-17
  -11.617500        1.08338161E-17
  -11.475000        1.08357318E-17
  -11.332500        1.08255575E-17
  -11.190000        1.08117080E-17
  -11.047500        1.08048606E-17
  -10.905000        1.08116030E-17
  -10.762500        1.08305173E-17
  -10.620000        1.08530687E-17
  -10.477500        1.08687670E-17
  -10.335000        1.08714983E-17
  -10.192500        1.08631934E-17
  -10.050000        1.08526320E-17
  -9.9075003        1.08500702E-17
  -9.7650003        1.08609567E-17
  -9.6225004        1.08825197E-17
  -9.4799995        1.09053176E-17
  -9.3374996        1.09188420E-17
  -9.1949997        1.09178303E-17
  -9.0524998        1.09054772E-17
  -8.9099998        1.08916137E-17
  -8.7674999        1.08869136E-17
  -8.6250000        1.08965999E-17
  -8.4825001        1.09173986E-17
  -8.3400002        1.09395653E-17
  -8.1975002        1.09527473E-17
  -8.0550003        1.09521724E-17
  -7.9124999        1.09414298E-17
  -7.7700000        1.09302058E-17
  -7.6275001        1.09283463E-17
  -7.4850001        1.09398267E-17
  -7.3425002        1.09602870E-17
  -7.1999998        1.09796058E-17
  -7.0574999        1.09879711E-17
  -6.9150000        1.09818136E-17
  -6.7725000        1.09660252E-17
  -6.6300001        1.09511376E-17
  -6.4875002        1.09471514E-17
  -6.3449998        1.09577153E-17
  -6.2024999        1.09781194E-17
  -6.0599999        1.09982803E-17
  -5.9175000        1.10088781E-17
  -5.7750001        1.10069475E-17
  -5.6325002        1.09975615E-17
  -5.4899998        1.09906115E-17
  -5.3474998        1.09946887E-17
  -5.2049999        1.10117517E-17
  -5.0625000        1.10358401E-17
  -4.9200001        1.10565816E-17
  -4.7775002        1.10653878E-17
  -4.6350002        1.10605835E-17
  -4.4924998        1.10483851E-17
  -4.3499999        1.10391447E-17
  -4.2075000        1.10411398E-17
  -4.0650001        1.10556544E-17
  -3.9224999        1.10763074E-17
  -3.7800000        1.10930098E-17
  -3.6375000        1.10981342E-17
  -3.4949999        1.10911404E-17
  -3.3525000        1.10788791E-17
  -3.2100000        1.10713857E-17
  -3.0675001        1.10757482E-17
  -2.9250000        1.10917649E-17
  -2.7825000        1.11120540E-17
  -2.6400001        1.11265264E-17
  -2.4974999        1.11285356E-17
  -2.3550000        1.11189502E-17
  -2.2125001        1.11056814E-17
  -2.0699999        1.10989358E-17
  -1.9275000        1.11050610E-17
  -1.7850000        1.11227089E-17
  -1.6425000        1.11436416E-17
  -1.5000000        1.11577136E-17
  -1.3575000        1.11589990E-17
  -1.2150000        1.11493656E-17
  -1.0725000        1.11373269E-17
 -0.93000001        1.11328477E-17
 -0.78750002        1.11412709E-17
 -0.64499998        1.11600206E-17
 -0.50250000        1.11801227E-17
 -0.36000001        1.11916313E-17
 -0.21750000        1.11896824E-17
 -7.50000030E-02    1.11775212E-17
  6.75000027E-02    1.11646379E-17
  0.20999999        1.11611108E-17
  0.35249999        1.11715490E-17
  0.49500000        1.11922905E-17
  0.63749999        1.12135532E-17
  0.77999997        1.12252628E-17
  0.92250001        1.12230716E-17
   1.0650001        1.12109319E-17
   1.2075000        1.11986904E-17
   1.3500000        1.11961377E-17
   1.4924999        1.12070954E-17
   1.6350000        1.12271124E-17
   1.7775000        1.12461532E-17
   1.9200000        1.12546831E-17
   2.0625000        1.12494768E-17
   2.2049999        1.12356513E-17
   2.3475001        1.12236812E-17
   2.4900000        1.12231824E-17
   2.6324999        1.12371676E-17
   2.7750001        1.12602285E-17
   2.9175000        1.12817344E-17
   3.0599999        1.12921205E-17
   3.2025001        1.12885115E-17
   3.3450000        1.12763056E-17
   3.4875000        1.12658128E-17
   3.6300001        1.12659725E-17
   3.7725000        1.12789443E-17
   3.9150000        1.12988281E-17
   4.0574999        1.13152650E-17
   4.1999998        1.13197351E-17
   4.3425002        1.13107560E-17
   4.4850001        1.12948535E-17
   4.6275001        1.12827179E-17
   4.7700000        1.12828652E-17
   4.9124999        1.12966104E-17
   5.0549998        1.13173553E-17
   5.1975002        1.13346094E-17
   5.3400002        1.13402855E-17
   5.4825001        1.13334952E-17
   5.6250000        1.13209684E-17
   5.7674999        1.13128753E-17
   5.9099998        1.13166166E-17
   6.0524998        1.13323306E-17
   6.1950002        1.13528331E-17
   6.3375001        1.13680093E-17
   6.4800000        1.13709723E-17
   6.6224999        1.13622654E-17
   6.7649999        1.13495508E-17
   6.9074998        1.13429946E-17
   7.0500002        1.13491347E-17
   7.1925001        1.13669530E-17
   7.3350000        1.13885052E-17
   7.4775000        1.14037402E-17
   7.6199999        1.14065543E-17
   7.7624998        1.13984521E-17
   7.9050002        1.13875614E-17
   8.0474997        1.13836579E-17
   8.1899996        1.13921878E-17
   8.3325005        1.14109450E-17
   8.4750004        1.14314045E-17
   8.6175003        1.14439048E-17
   8.7600002        1.14435317E-17
   8.9025002        1.14331142E-17
   9.0450001        1.14215130E-17
   9.1875000        1.14182217E-17
   9.3299999        1.14275514E-17
   9.4724998        1.14459306E-17
   9.6149998        1.14639763E-17
   9.7574997        1.14721199E-17
   9.8999996        1.14663793E-17
   10.042500        1.14507994E-17
   10.185000        1.14350838E-17
   10.327500        1.14288104E-17
   10.470000        1.14357505E-17
   10.612500        1.14516878E-17
   10.755000        1.14670857E-17
   10.897500        1.14729819E-17
   11.040000        1.14665356E-17
   11.182500        1.14528764E-17
   11.325000        1.14420875E-17
   11.467500        1.14431471E-17
   11.610000        1.14584450E-17
   11.752500        1.14822190E-17
   11.895000        1.15038630E-17
   12.037500        1.15141531E-17
   12.180000        1.15106707E-17
   12.322500        1.14991621E-17
   12.465000        1.14900276E-17
   12.607500        1.14920418E-17
   12.750000        1.15070691E-17
   12.892500        1.15289679E-17
   13.035000        1.15473049E-17
   13.177500        1.15536717E-17
   13.320000        1.15467730E-17
   13.462500        1.15332378E-17
   13.605000        1.15236434E-17
   13.747500        1.15261555E-17
   13.890000        1.15415924E-17
   14.032500        1.15628848E-17
   14.175000        1.15792680E-17
   14.317500        1.15826759E-17
   14.460000        1.15725322E-17
   14.602500        1.15560597E-17
   14.745000        1.15439490E-17
   14.887500        1.15439995E-17
   15.030000        1.15565470E-17
   15.172500        1.15744116E-17
   15.315000        1.15873512E-17
   15.457500        1.15883289E-17
   15.600000        1.15777972E-17
   15.742500        1.15634324E-17
   15.885000        1.15554923E-17
   16.027500        1.15606134E-17
   16.170000        1.15777856E-17
   16.312500        1.15989400E-17
   16.455000        1.16137606E-17
   16.597500        1.16158326E-17
   16.740000        1.16064135E-17
   16.882500        1.15935749E-17
   17.025000        1.15872668E-17
   17.167500        1.15932895E-17
   17.309999        1.16098265E-17
   17.452499        1.16286068E-17
   17.594999        1.16399689E-17
   17.737499        1.16387455E-17
   17.879999        1.16273950E-17
   18.022499        1.16144976E-17
   18.165001        1.16095403E-17
   18.307501        1.16171570E-17
   18.450001        1.16343317E-17
   18.592501        1.16522435E-17
   18.735001        1.16616469E-17
   18.877501        1.16585061E-17
   19.020000        1.16464706E-17
   19.162500        1.16346899E-17
   19.305000        1.16322828E-17
   19.447500        1.16428128E-17
   19.590000        1.16621250E-17
   19.732500        1.16808449E-17
   19.875000        1.16900423E-17
   20.017500        1.16866153E-17
   20.160000        1.16751382E-17
   20.302500        1.16650482E-17
   20.445000        1.16648687E-17
   20.587500        1.16769803E-17
   20.730000        1.16961138E-17
   20.872499        1.17125044E-17
   21.014999        1.17178133E-17
   21.157499        1.17102338E-17
   21.299999        1.16956862E-17
   21.442499        1.16843546E-17
   21.584999        1.16846202E-17
   21.727501        1.16980511E-17
   21.870001        1.17184684E-17
   22.012501        1.17356572E-17
   22.155001        1.17414971E-17
   22.297501        1.17348308E-17
   22.440001        1.17221146E-17
   22.582500        1.17134681E-17
   22.725000        1.17164873E-17
   22.867500        1.17315693E-17
   23.010000        1.17515622E-17
   23.152500        1.17659858E-17
   23.295000        1.17673060E-17
   23.437500        1.17554798E-17
   23.580000        1.17380527E-17
   23.722500        1.17257277E-17
   23.865000        1.17260470E-17
   24.007500        1.17389825E-17
   24.150000        1.17570522E-17
   24.292500        1.17699017E-17
   24.434999        1.17705692E-17
   24.577499        1.17596851E-17
   24.719999        1.17450854E-17
   24.862499        1.17370733E-17
   25.004999        1.17421952E-17
   25.147499        1.17592773E-17
   25.290001        1.17800925E-17
   25.432501        1.17942696E-17
   25.575001        1.17954797E-17
   25.717501        1.17851995E-17
   25.860001        1.17717984E-17
   26.002501        1.17655060E-17
   26.145000        1.17723013E-17
   26.287500        1.17903735E-17
   26.430000        1.18112814E-17
   26.572500        1.18250523E-17
   26.715000        1.18261673E-17
   26.857500        1.18168078E-17
   27.000000        1.18054357E-17
   27.142500        1.18015934E-17
   27.285000        1.18100869E-17
   27.427500        1.18280516E-17
   27.570000        1.18466806E-17
   27.712500        1.18565430E-17
   27.855000        1.18532724E-17
   27.997499        1.18401930E-17
   28.139999        1.18263187E-17
   28.282499        1.18209271E-17
   28.424999        1.18280210E-17
   28.567499        1.18439947E-17
   28.709999        1.18599163E-17
   28.852501        1.18670044E-17
   28.995001        1.18619908E-17
   29.137501        1.18490984E-17
   29.280001        1.18374716E-17
   29.422501        1.18356046E-17
   29.565001        1.18461809E-17
   29.707500        1.18644343E-17
   29.850000        1.18810342E-17
   29.992500        1.18877517E-17
   30.135000        1.18824495E-17
   30.277500        1.18703710E-17
   30.420000        1.18609536E-17
   30.562500        1.18620678E-17
   30.705000        1.18751976E-17
   30.847500        1.18944767E-17
   30.990000        1.19101749E-17
   31.132500        1.19145507E-17
   31.275000        1.19065089E-17
   31.417500        1.18922632E-17
   31.559999        1.18815834E-17
   31.702499        1.18818878E-17
   31.844999        1.18937662E-17
   31.987499        1.19106357E-17
   32.130001        1.19227539E-17
   32.272499        1.19231699E-17
   32.415001        1.19120022E-17
   32.557499        1.18964504E-17
   32.700001        1.18865019E-17
   32.842499        1.18888999E-17
   32.985001        1.19030190E-17
   33.127499        1.19211450E-17
   33.270000        1.19330117E-17
   33.412498        1.19319008E-17
   33.555000        1.19186304E-17
   33.697498        1.19010561E-17
   33.840000        1.18893639E-17
   33.982498        1.18899950E-17
   34.125000        1.19018485E-17
   34.267502        1.19170414E-17
   34.410000        1.19257739E-17
   34.552502        1.19223601E-17
   34.695000        1.19087894E-17
   34.837502        1.18936669E-17
   34.980000        1.18871462E-17
   35.122501        1.18948977E-17
   35.264999        1.19147186E-17
   35.407501        1.19378226E-17
   35.549999        1.19540412E-17
   35.692501        1.19578181E-17
   35.834999        1.19514190E-17
   35.977501        1.19434384E-17
   36.119999        1.19435376E-17
   36.262501        1.19565698E-17
   36.404999        1.19796217E-17
   36.547501        1.20037406E-17
   36.689999        1.20192850E-17
   36.832500        1.20216599E-17
   36.974998        1.20140084E-17
   37.117500        1.20052296E-17
   37.259998        1.20045546E-17
   37.402500        1.20159358E-17
   37.544998        1.20356400E-17
   37.687500        1.20544708E-17
   37.830002        1.20632770E-17
   37.972500        1.20584140E-17
   38.115002        1.20438903E-17
   38.257500        1.20289192E-17
   38.400002        1.20223779E-17
   38.542500        1.20275271E-17
   38.685001        1.20401606E-17
   38.827499        1.20512845E-17
   38.970001        1.20526717E-17
   39.112499        1.20419183E-17
   39.255001        1.20239512E-17
   39.397499        1.20080776E-17
   39.540001        1.20023791E-17
   39.682499        1.20088592E-17
   39.825001        1.20222745E-17
   39.967499        1.20333529E-17
   40.110001        1.20344448E-17
   40.252499        1.20241695E-17
   40.395000        1.20082620E-17
   40.537498        1.19960884E-17
   40.680000        1.19949593E-17
   40.822498        1.20056820E-17
   40.965000        1.20220519E-17
   41.107498        1.20345895E-17
   41.250000        1.20362604E-17
   41.392502        1.20267172E-17
   41.535000        1.20124897E-17
   41.677502        1.20030119E-17
   41.820000        1.20048846E-17
   41.962502        1.20178664E-17
   42.105000        1.20350246E-17
   42.247501        1.20469641E-17
   42.389999        1.20475845E-17
   42.532501        1.20378660E-17
   42.674999        1.20253847E-17
   42.817501        1.20198004E-17
   42.959999        1.20270432E-17
   43.102501        1.20456986E-17
   43.244999        1.20677710E-17
   43.387501        1.20834064E-17
   43.529999        1.20867275E-17
   43.672501        1.20792763E-17
   43.814999        1.20689961E-17
   43.957500        1.20653548E-17
   44.099998        1.20735539E-17
   44.242500        1.20913151E-17
   44.384998        1.21102038E-17
   44.527500        1.21206957E-17
   44.669998        1.21179553E-17
   44.812500        1.21048271E-17
   44.955002        1.20902431E-17
   45.097500        1.20839606E-17
   45.240002        1.20907865E-17
   45.382500        1.21077404E-17
   45.525002        1.21258664E-17
   45.667500        1.21355974E-17
   45.810001        1.21324657E-17
   45.952499        1.21197362E-17
   46.095001        1.21063830E-17
   46.237499        1.21016515E-17
   46.380001        1.21094676E-17
   46.522499        1.21260476E-17
   46.665001        1.21421677E-17
   46.807499        1.21486933E-17
   46.950001        1.21420759E-17
   47.092499        1.21264959E-17
   47.235001        1.21113891E-17
   47.377499        1.21058329E-17
   47.520000        1.21131717E-17
   47.662498        1.21290990E-17
   47.805000        1.21443216E-17
   47.947498        1.21501888E-17
   48.090000        1.21438907E-17
   48.232498        1.21301165E-17
   48.375000        1.21181811E-17
   48.517502        1.21163944E-17
   48.660000        1.21270526E-17
   48.802502        1.21450835E-17
   48.945000        1.21611324E-17
   49.087502        1.21672089E-17
   49.230000        1.21614914E-17
   49.372501        1.21493782E-17
   49.514999        1.21401791E-17
   49.657501        1.21414596E-17
   49.799999        1.21544480E-17
   49.942501        1.21732887E-17
   50.084999        1.21885758E-17
   50.227501        1.21930045E-17
   50.369999        1.21857493E-17
   50.512501        1.21729032E-17
   50.654999        1.21637430E-17
   50.797501        1.21650930E-17
   50.939999        1.21772037E-17
   51.082500        1.21936365E-17
   51.224998        1.22052121E-17
   51.367500        1.22056298E-17
   51.509998        1.21953182E-17
   51.652500        1.21812023E-17
   51.794998        1.21724971E-17
   51.937500        1.21751010E-17
   52.080002        1.21879695E-17
   52.222500        1.22036942E-17
   52.365002        1.22129454E-17
   52.507500        1.22100982E-17
   52.650002        1.21966491E-17
   52.792500        1.21803445E-17
   52.935001        1.21705408E-17
   53.077499        1.21725996E-17
   53.220001        1.21847063E-17
   53.362499        1.21990372E-17
   53.505001        1.22065794E-17
   53.647499        1.22026759E-17
   53.790001        1.21899464E-17
   53.932499        1.21767719E-17
   54.075001        1.21722622E-17
   54.217499        1.21807002E-17
   54.360001        1.21988527E-17
   54.502499        1.22177778E-17
   54.645000        1.22280778E-17
   54.787498        1.22254490E-17
   54.930000        1.22132159E-17
   55.072498        1.22003027E-17
   55.215000        1.21958649E-17
   55.357498        1.22038075E-17
   55.500000        1.22204843E-17
   55.642502        1.22369493E-17
   55.785000        1.22444279E-17
   55.927502        1.22396898E-17
   56.070000        1.22270852E-17
   56.212502        1.22160010E-17
   56.355000        1.22152524E-17
   56.497501        1.22277651E-17
   56.639999        1.22487474E-17
   56.782501        1.22684649E-17
   56.924999        1.22779576E-17
   57.067501        1.22742941E-17
   57.209999        1.22622222E-17
   57.352501        1.22512389E-17
   57.494999        1.22498525E-17
   57.637501        1.22604851E-17
   57.779999        1.22780610E-17
   57.922501        1.22931099E-17
   58.064999        1.22975089E-17
   58.207500        1.22893818E-17
   58.349998        1.22742312E-17
   58.492500        1.22616216E-17
   58.634998        1.22594180E-17
   58.777500        1.22690663E-17
   58.919998        1.22847389E-17
   59.062500        1.22968695E-17
   59.205002        1.22979274E-17
   59.347500        1.22869698E-17
   59.490002        1.22702351E-17
   59.632500        1.22574336E-17
   59.775002        1.22559910E-17
   59.917500        1.22666840E-17
   60.060001        1.22832938E-17
   60.202499        1.22964451E-17
   60.345001        1.22992857E-17
   60.487499        1.22915656E-17
   60.630001        1.22796716E-17
   60.772499        1.22726141E-17
   60.915001        1.22764240E-17
   61.057499        1.22903794E-17
   61.200001        1.23073548E-17
   61.342499        1.23180900E-17
   61.485001        1.23167905E-17
   61.627499        1.23046838E-17
   61.770000        1.22893562E-17
   61.912498        1.22802721E-17
   62.055000        1.22831846E-17
   62.197498        1.22967867E-17
   62.340000        1.23136190E-17
   62.482498        1.23246710E-17
   62.625000        1.23248563E-17
   62.767502        1.23160526E-17
   62.910000        1.23058634E-17
   63.052502        1.23028458E-17
   63.195000        1.23111425E-17
   63.337502        1.23277721E-17
   63.480000        1.23442735E-17
   63.622501        1.23517297E-17
   63.764999        1.23461488E-17
   63.907501        1.23309427E-17
   64.050003        1.23149831E-17
   64.192497        1.23073747E-17
   64.334999        1.23120879E-17
   64.477501        1.23256669E-17
   64.620003        1.23394064E-17
   64.762497        1.23446731E-17
   64.904999        1.23381681E-17
   65.047501        1.23239414E-17
   65.190002        1.23109332E-17
   65.332497        1.23075343E-17
   65.474998        1.23164331E-17
   65.617500        1.23329023E-17
   65.760002        1.23475715E-17
   65.902496        1.23520499E-17
   66.044998        1.23440212E-17
   66.187500        1.23287349E-17
   66.330002        1.23159682E-17
   66.472504        1.23142634E-17
   66.614998        1.23258779E-17
   66.757500        1.23454738E-17
   66.900002        1.23633285E-17
   67.042503        1.23711428E-17
   67.184998        1.23669639E-17
   67.327499        1.23562701E-17
   67.470001        1.23485757E-17
   67.612503        1.23516098E-17
   67.754997        1.23665768E-17
   67.897499        1.23873564E-17
   68.040001        1.24041225E-17
   68.182503        1.24092171E-17
   68.324997        1.24017328E-17
   68.467499        1.23880653E-17
   68.610001        1.23780829E-17
   68.752502        1.23792194E-17
   68.894997        1.23920267E-17
   69.037498        1.24098483E-17
   69.180000        1.24227994E-17
   69.322502        1.24236514E-17
   69.464996        1.24121015E-17
   69.607498        1.23948796E-17
   69.750000        1.23816571E-17
   69.892502        1.23792558E-17
   70.035004        1.23876385E-17
   70.177498        1.24000966E-17
   70.320000        1.24074858E-17
   70.462502        1.24039290E-17
   70.605003        1.23905204E-17
   70.747498        1.23747882E-17
   70.889999        1.23662335E-17
   71.032501        1.23706333E-17
   71.175003        1.23865466E-17
   71.317497        1.24061177E-17
   71.459999        1.24196901E-17
   71.602501        1.24214495E-17
   71.745003        1.24127087E-17
   71.887497        1.24008792E-17
   72.029999        1.23947961E-17
   72.172501        1.23992653E-17
   72.315002        1.24121280E-17
   72.457497        1.24256416E-17
   72.599998        1.24313037E-17
   72.742500        1.24251859E-17
   72.885002        1.24104993E-17
   73.027496        1.23958135E-17
   73.169998        1.23899902E-17
   73.312500        1.23968640E-17
   73.455002        1.24129113E-17
   73.597504        1.24293044E-17
   73.739998        1.24371353E-17
   73.882500        1.24326619E-17
   74.025002        1.24194154E-17
   74.167503        1.24059167E-17
   74.309998        1.24003969E-17
   74.452499        1.24057372E-17
   74.595001        1.24177048E-17
   74.737503        1.24275781E-17
   74.879997        1.24275566E-17
   75.022499        1.24156758E-17
   75.165001        1.23972230E-17
   75.307503        1.23817456E-17
   75.449997        1.23774319E-17
   75.592499        1.23862257E-17
   75.735001        1.24026377E-17
   75.877502        1.24169902E-17
   76.019997        1.24211583E-17
   76.162498        1.24133845E-17
   76.305000        1.23992571E-17
   76.447502        1.23882903E-17
   76.589996        1.23881431E-17
   76.732498        1.23999841E-17
   76.875000        1.24177917E-17
   77.017502        1.24320109E-17
   77.160004        1.24353767E-17
   77.302498        1.24273655E-17
   77.445000        1.24145897E-17
   77.587502        1.24068630E-17
   77.730003        1.24112760E-17
   77.872498        1.24278560E-17
   78.014999        1.24494148E-17
   78.157501        1.24656970E-17
   78.300003        1.24693705E-17
   78.442497        1.24602691E-17
   78.584999        1.24453782E-17
   78.727501        1.24345843E-17
   78.870003        1.24347431E-17
   79.012497        1.24456437E-17
   79.154999        1.24602674E-17
   79.297501        1.24691546E-17
   79.440002        1.24662430E-17
   79.582497        1.24526292E-17
   79.724998        1.24359872E-17
   79.867500        1.24259940E-17
   80.010002        1.24285136E-17
   80.152496        1.24420455E-17
   80.294998        1.24585692E-17
   80.437500        1.24682944E-17
   80.580002        1.24654472E-17
   80.722504        1.24516523E-17
   80.864998        1.24348887E-17
   81.007500        1.24246722E-17
   81.150002        1.24263935E-17
   81.292503        1.24382007E-17
   81.434998        1.24522760E-17
   81.577499        1.24596925E-17
   81.720001        1.24558949E-17
   81.862503        1.24434533E-17
   82.004997        1.24304525E-17
   82.147499        1.24254944E-17
   82.290001        1.24323575E-17
   82.432503        1.24475768E-17
   82.574997        1.24624057E-17
   82.717499        1.24680065E-17
   82.860001        1.24607306E-17
   83.002502        1.24443128E-17
   83.144997        1.24276583E-17
   83.287498        1.24195685E-17
   83.430000        1.24235877E-17
   83.572502        1.24360691E-17
   83.714996        1.24485984E-17
   83.857498        1.24532744E-17
   84.000000        1.24476182E-17
   84.142502        1.24361046E-17
   84.285004        1.24273969E-17
   84.427498        1.24289479E-17
   84.570000        1.24422812E-17
   84.712502        1.24618349E-17
   84.855003        1.24781105E-17
   84.997498        1.24832697E-17
   85.139999        1.24757919E-17
   85.282501        1.24614007E-17
   85.425003        1.24496580E-17
   85.567497        1.24482907E-17
   85.709999        1.24586337E-17
   85.852501        1.24749499E-17
   85.995003        1.24880086E-17
   86.137497        1.24907573E-17
   86.279999        1.24826443E-17
   86.422501        1.24699570E-17
   86.565002        1.24619640E-17
   86.707497        1.24651933E-17
   86.849998        1.24793166E-17
   86.992500        1.24971580E-17
   87.135002        1.25088717E-17
   87.277496        1.25078030E-17
   87.419998        1.24945110E-17
   87.562500        1.24765314E-17
   87.705002        1.24639897E-17
   87.847504        1.24636762E-17
   87.989998        1.24751285E-17
   88.132500        1.24910402E-17
   88.275002        1.25017447E-17
   88.417503        1.25010664E-17
   88.559998        1.24900013E-17
   88.702499        1.24760376E-17
   88.845001        1.24685177E-17
   88.987503        1.24728538E-17
   89.129997        1.24871069E-17
   89.272499        1.25029963E-17
   89.415001        1.25107759E-17
   89.557503        1.25050435E-17
   89.699997        1.24880177E-17
   89.842499        1.24683010E-17
   89.985001        1.24558801E-17
   90.127502        1.24563350E-17
   90.269997        1.24677137E-17
   90.412498        1.24819123E-17
   90.555000        1.24896952E-17
   90.697502        1.24863071E-17
   90.839996        1.24743088E-17
   90.982498        1.24619408E-17
   91.125000        1.24580382E-17
   91.267502        1.24665846E-17
   91.410004        1.24842060E-17
   91.552498        1.25021161E-17
   91.695000        1.25113508E-17
   91.837502        1.25081091E-17
   91.980003        1.24960165E-17