  -30.000000        9.78447028E-19
  -29.857500        9.80199307E-19
  -29.715000        9.83397394E-19
  -29.572500        9.87513134E-19
  -29.430000        9.91905360E-19
  -29.287500        9.95947895E-19
  -29.145000        9.99148670E-19
  -29.002501        1.00123947E-18
  -28.860001        1.00221565E-18
  -28.717501        1.00232742E-18
  -28.575001        1.00202137E-18
  -28.432501        1.00184714E-18
  -28.290001        1.00234531E-18
  -28.147499        1.00393484E-18
  -28.004999        1.00682098E-18
  -27.862499        1.01094706E-18
  -27.719999        1.01599389E-18
  -27.577499        1.02144015E-18
  -27.434999        1.02666556E-18
  -27.292500        1.03107846E-18
  -27.150000        1.03423933E-18
  -27.007500        1.03595262E-18
  -26.865000        1.03630376E-18
  -26.722500        1.03563933E-18
  -26.580000        1.03449399E-18
  -26.437500        1.03348070E-18
  -26.295000        1.03316978E-18
  -26.152500        1.03398393E-18
  -26.010000        1.03611785E-18
  -25.867500        1.03950402E-18
  -25.725000        1.04382883E-18
  -25.582500        1.04859122E-18
  -25.440001        1.05320099E-18
  -25.297501        1.05709774E-18
  -25.155001        1.05986559E-18
  -25.012501        1.06132070E-18
  -24.870001        1.06155107E-18
  -24.727501        1.06090091E-18
  -24.584999        1.05989568E-18
  -24.442499        1.05912981E-18
  -24.299999        1.05914087E-18
  -24.157499        1.06029800E-18
  -24.014999        1.06272856E-18
  -23.872499        1.06629971E-18
  -23.730000        1.07064685E-18
  -23.587500        1.07525280E-18
  -23.445000        1.07954938E-18
  -23.302500        1.08302954E-18
  -23.160000        1.08534596E-18
  -23.017500        1.08638045E-18
  -22.875000        1.08627230E-18
  -22.732500        1.08539073E-18
  -22.590000        1.08426431E-18
  -22.447500        1.08347374E-18
  -22.305000        1.08352916E-18
  -22.162500        1.08475969E-18
  -22.020000        1.08724289E-18
  -21.877501        1.09078829E-18
  -21.735001        1.09498075E-18
  -21.592501        1.09927071E-18
  -21.450001        1.10309084E-18
  -21.307501        1.10597605E-18
  -21.165001        1.10765667E-18
  -21.022499        1.10811048E-18
  -20.879999        1.10756537E-18
  -20.737499        1.10645468E-18
  -20.594999        1.10533395E-18
  -20.452499        1.10477219E-18
  -20.309999        1.10523769E-18
  -20.167500        1.10700320E-18
  -20.025000        1.11008362E-18
  -19.882500        1.11422645E-18
  -19.740000        1.11895896E-18
  -19.597500        1.12368619E-18
  -19.455000        1.12781465E-18
  -19.312500        1.13088235E-18
  -19.170000        1.13265779E-18
  -19.027500        1.13319070E-18
  -18.885000        1.13280069E-18
  -18.742500        1.13201104E-18
  -18.600000        1.13144018E-18
  -18.457500        1.13167986E-18
  -18.315001        1.13317561E-18
  -18.172501        1.13613722E-18
  -18.030001        1.14049492E-18
  -17.887501        1.14590250E-18
  -17.745001        1.15179348E-18
  -17.602501        1.15748200E-18
  -17.459999        1.16228864E-18
  -17.317499        1.16567078E-18
  -17.174999        1.16733134E-18
  -17.032499        1.16728088E-18
  -16.889999        1.16583849E-18
  -16.747499        1.16356643E-18
  -16.605000        1.16115995E-18
  -16.462500        1.15930645E-18
  -16.320000        1.15855558E-18
  -16.177500        1.15921474E-18
  -16.035000        1.16130450E-18
  -15.892500        1.16456463E-18
  -15.750000        1.16851514E-18
  -15.607500        1.17255519E-18
  -15.465000        1.17607857E-18
  -15.322500        1.17859196E-18
  -15.180000        1.17980791E-18
  -15.037500        1.17969831E-18
  -14.895000        1.17850087E-18
  -14.752500        1.17666763E-18
  -14.610000        1.17477111E-18
  -14.467500        1.17338000E-18
  -14.325000        1.17293477E-18
  -14.182500        1.17365224E-18
  -14.040000        1.17547525E-18
  -13.897500        1.17808821E-18
  -13.755000        1.18098592E-18
  -13.612500        1.18358368E-18
  -13.470000        1.18533824E-18
  -13.327500        1.18586443E-18
  -13.185000        1.18501191E-18
  -13.042500        1.18289992E-18
  -12.900000        1.17990097E-18
  -12.757500        1.17657529E-18
  -12.615000        1.17357314E-18
  -12.472500        1.17151522E-18
  -12.330000        1.17087540E-18
  -12.187500        1.17189107E-18
  -12.045000        1.17451065E-18
  -11.902500        1.17840605E-18
  -11.760000        1.18303495E-18
  -11.617500        1.18775298E-18
  -11.475000        1.19194152E-18
  -11.332500        1.19512999E-18
  -11.190000        1.19708275E-18
  -11.047500        1.19783290E-18
  -10.905000        1.19766250E-18
  -10.762500        1.19703209E-18
  -10.620000        1.19648005E-18
  -10.477500        1.19651024E-18
  -10.335000        1.19748890E-18
  -10.192500        1.19957122E-18
  -10.050000        1.20266653E-18
  -9.9075003        1.20644933E-18
  -9.7650003        1.21041970E-18
  -9.6225004        1.21399767E-18
  -9.4799995        1.21664361E-18
  -9.3374996        1.21796421E-18
  -9.1949997        1.21779908E-18
  -9.0524998        1.21625256E-18
  -8.9099998        1.21367165E-18
  -8.7674999        1.21057211E-18
  -8.6250000        1.20753067E-18
  -8.4825001        1.20507073E-18
  -8.3400002        1.20356185E-18
  -8.1975002        1.20315902E-18
  -8.0550003        1.20378385E-18
  -7.9124999        1.20515438E-18
  -7.7700000        1.20685000E-18
  -7.6275001        1.20840220E-18
  -7.4850001        1.20939110E-18
  -7.3425002        1.20953586E-18
  -7.1999998        1.20875717E-18
  -7.0574999        1.20720134E-18
  -6.9150000        1.20521539E-18
  -6.7725000        1.20327865E-18
  -6.6300001        1.20190098E-18
  -6.4875002        1.20151158E-18
  -6.3449998        1.20236265E-18
  -6.2024999        1.20447124E-18
  -6.0599999        1.20761535E-18
  -5.9175000        1.21138285E-18
  -5.7750001        1.21525509E-18
  -5.6325002        1.21871704E-18
  -5.4899998        1.22135637E-18
  -5.3474998        1.22294383E-18
  -5.2049999        1.22346971E-18
  -5.0625000        1.22314618E-18
  -4.9200001        1.22236139E-18
  -4.7775002        1.22160370E-18
  -4.6350002        1.22136030E-18
  -4.4924998        1.22201708E-18
  -4.3499999        1.22376822E-18
  -4.2075000        1.22656719E-18
  -4.0650001        1.23012128E-18
  -3.9224999        1.23394079E-18
  -3.7800000        1.23743717E-18
  -3.6375000        1.24004372E-18
  -3.4949999        1.24133206E-18
  -3.3525000        1.24110314E-18
  -3.2100000        1.23942840E-18
  -3.0675001        1.23663915E-18
  -2.9250000        1.23325877E-18
  -2.7825000        1.22990714E-18
  -2.6400001        1.22718458E-18
  -2.4974999        1.22556775E-18
  -2.3550000        1.22532404E-18
  -2.2125001        1.22646938E-18
  -2.0699999        1.22876729E-18
  -1.9275000        1.23178060E-18
  -1.7850000        1.23495780E-18
  -1.6425000        1.23774923E-18
  -1.5000000        1.23972102E-18
  -1.3575000        1.24064829E-18
  -1.2150000        1.24056588E-18
  -1.0725000        1.23975514E-18
 -0.93000001        1.23868311E-18
 -0.78750002        1.23789450E-18
 -0.64499998        1.23789305E-18
 -0.50250000        1.23902939E-18
 -0.36000001        1.24142677E-18
 -0.21750000        1.24495066E-18
 -7.50000030E-02    1.24923163E-18
  6.75000027E-02    1.25373573E-18
  0.20999999        1.25786150E-18
  0.35249999        1.26105680E-18
  0.49500000        1.26292571E-18
  0.63749999        1.26330880E-18
  0.77999997        1.26232445E-18
  0.92250001        1.26035173E-18
   1.0650001        1.25795963E-18
   1.2075000        1.25579728E-18
   1.3500000        1.25445817E-18
   1.4924999        1.25436026E-18
   1.6350000        1.25565800E-18
   1.7775000        1.25821295E-18
   1.9200000        1.26162269E-18
   2.0625000        1.26530644E-18
   2.2049999        1.26862116E-18
   2.3475001        1.27098638E-18
   2.4900000        1.27199502E-18
   2.6324999        1.27148858E-18
   2.7750001        1.26958731E-18
   2.9175000        1.26667243E-18
   3.0599999        1.26331624E-18
   3.2025001        1.26018144E-18
   3.3450000        1.25789625E-18
   3.4875000        1.25693806E-18
   3.6300001        1.25753735E-18
   3.7725000        1.25963663E-18
   3.9150000        1.26290731E-18
   4.0574999        1.26681977E-18
   4.1999998        1.27075777E-18
   4.3425002        1.27414693E-18
   4.4850001        1.27656457E-18
   4.6275001        1.27781279E-18
   4.7700000        1.27794152E-18
   4.9124999        1.27721836E-18
   5.0549998        1.27606082E-18
   5.1975002        1.27493916E-18
   5.3400002        1.27427980E-18
   5.4825001        1.27437596E-18
   5.6250000        1.27532711E-18
   5.7674999        1.27701528E-18
   5.9099998        1.27912491E-18
   6.0524998        1.28120682E-18
   6.1950002        1.28277391E-18
   6.3375001        1.28341053E-18
   6.4800000        1.28287276E-18
   6.6224999        1.28115512E-18
   6.7649999        1.27850214E-18
   6.9074998        1.27536775E-18
   7.0500002        1.27232652E-18
   7.1925001        1.26995964E-18
   7.3350000        1.26874255E-18
   7.4775000        1.26895648E-18
   7.6199999        1.27063845E-18
   7.7624998        1.27358455E-18
   7.9050002        1.27738979E-18
   8.0474997        1.28152673E-18
   8.1899996        1.28544446E-18
   8.3325005        1.28866964E-18
   8.4750004        1.29089527E-18
   8.6175003        1.29204061E-18
   8.7600002        1.29226467E-18
   8.9025002        1.29193080E-18
   9.0450001        1.29152786E-18
   9.1875000        1.29155888E-18
   9.3299999        1.29242680E-18
   9.4724998        1.29434265E-18
   9.6149998        1.29727211E-18
   9.7574997        1.30094117E-18
   9.8999996        1.30488889E-18
   10.042500        1.30855909E-18
   10.185000        1.31140945E-18
   10.327500        1.31301615E-18
   10.470000        1.31315181E-18
   10.612500        1.31183059E-18
   10.755000        1.30930800E-18
   10.897500        1.30603888E-18
   11.040000        1.30259605E-18
   11.182500        1.29956671E-18
   11.325000        1.29744323E-18
   11.467500        1.29652879E-18
   11.610000        1.29688199E-18
   11.752500        1.29831322E-18
   11.895000        1.30043401E-18
   12.037500        1.30274650E-18
   12.180000        1.30475561E-18
   12.322500        1.30607559E-18
   12.465000        1.30650872E-18
   12.607500        1.30607869E-18
   12.750000        1.30502093E-18
   12.892500        1.30372877E-18
   13.035000        1.30267246E-18
   13.177500        1.30230561E-18
   13.320000        1.30297211E-18
   13.462500        1.30483440E-18
   13.605000        1.30782921E-18
   13.747500        1.31167291E-18
   13.890000        1.31590456E-18
   14.032500        1.31997305E-18
   14.175000        1.32334826E-18
   14.317500        1.32562817E-18
   14.460000        1.32662503E-18
   14.602500        1.32640097E-18
   14.745000        1.32525015E-18
   14.887500        1.32363281E-18
   15.030000        1.32207791E-18
   15.172500        1.32107320E-18
   15.315000        1.32097332E-18
   15.457500        1.32193460E-18
   15.600000        1.32389120E-18
   15.742500        1.32657126E-18
   15.885000        1.32954870E-18
   16.027500        1.33232544E-18
   16.170000        1.33442576E-18
   16.312500        1.33549623E-18
   16.455000        1.33538198E-18
   16.597500        1.33417253E-18
   16.740000        1.33219113E-18
   16.882500        1.32993954E-18
   17.025000        1.32799691E-18
   17.167500        1.32690069E-18
   17.309999        1.32703335E-18
   17.452499        1.32854554E-18
   17.594999        1.33132528E-18
   17.737499        1.33502412E-18
   17.879999        1.33912538E-18
   18.022499        1.34304063E-18
   18.165001        1.34621690E-18
   18.307501        1.34822850E-18
   18.450001        1.34885065E-18
   18.592501        1.34809460E-18
   18.735001        1.34620481E-18
   18.877501        1.34361242E-18
   19.020000        1.34085512E-18
   19.162500        1.33847263E-18
   19.305000        1.33690120E-18
   19.447500        1.33638628E-18
   19.590000        1.33694049E-18
   19.732500        1.33834763E-18
   19.875000        1.34022212E-18
   20.017500        1.34209837E-18
   20.160000        1.34353880E-18
   20.302500        1.34422412E-18
   20.445000        1.34401898E-18
   20.587500        1.34299152E-18
   20.730000        1.34139599E-18
   20.872499        1.33961714E-18
   21.014999        1.33809244E-18
   21.157499        1.33722504E-18
   21.299999        1.33730341E-18
   21.442499        1.33843986E-18
   21.584999        1.34054379E-18
   21.727501        1.34333821E-18
   21.870001        1.34641357E-18
   22.012501        1.34932080E-18
   22.155001        1.35166523E-18
   22.297501        1.35320162E-18
   22.440001        1.35388363E-18
   22.582500        1.35387742E-18
   22.725000        1.35351936E-18
   22.867500        1.35324039E-18
   23.010000        1.35347252E-18
   23.152500        1.35455416E-18
   23.295000        1.35665954E-18
   23.437500        1.35975578E-18
   23.580000        1.36360135E-18
   23.722500        1.36778326E-18
   23.865000        1.37178568E-18
   24.007500        1.37508396E-18
   24.150000        1.37724445E-18
   24.292500        1.37801507E-18
   24.434999        1.37738083E-18
   24.577499        1.37557272E-18
   24.719999        1.37302345E-18
   24.862499        1.37028031E-18
   25.004999        1.36789235E-18
   25.147499        1.36629795E-18
   25.290001        1.36574374E-18
   25.432501        1.36624305E-18
   25.575001        1.36758650E-18
   25.717501        1.36939833E-18
   25.860001        1.37121761E-18
   26.002501        1.37259673E-18
   26.145000        1.37319023E-18
   26.287500        1.37282648E-18
   26.430000        1.37154962E-18
   26.572500        1.36961805E-18
   26.715000        1.36746573E-18
   26.857500        1.36562008E-18
   27.000000        1.36459810E-18
   27.142500        1.36479642E-18
   27.285000        1.36640208E-18
   27.427500        1.36934508E-18
   27.570000        1.37330986E-18
   27.712500        1.37779556E-18
   27.855000        1.38222004E-18
   27.997499        1.38603624E-18
   28.139999        1.38883232E-18
   28.282499        1.39040603E-18
   28.424999        1.39078684E-18
   28.567499        1.39021692E-18
   28.709999        1.38909319E-18
   28.852501        1.38788602E-18
   28.995001        1.38704240E-18
   29.137501        1.38689847E-18
   29.280001        1.38760758E-18
   29.422501        1.38910415E-18
   29.565001        1.39111358E-18
   29.707500        1.39320531E-18
   29.850000        1.39488449E-18
   29.992500        1.39570733E-18
   30.135000        1.39538421E-18
   30.277500        1.39385537E-18
   30.420000        1.39131334E-18
   30.562500        1.38817213E-18
   30.705000        1.38498707E-18
   30.847500        1.38234681E-18
   30.990000        1.38076286E-18
   31.132500        1.38057189E-18
   31.275000        1.38187501E-18
   31.417500        1.38451878E-18
   31.559999        1.38812094E-18
   31.702499        1.39213691E-18
   31.844999        1.39595662E-18
   31.987499        1.39901471E-18
   32.130001        1.40090109E-18
   32.272499        1.40144010E-18
   32.415001        1.40072873E-18
   32.557499        1.39911707E-18
   32.700001        1.39713990E-18
   32.842499        1.39540716E-18
   32.985001        1.39448362E-18
   33.127499        1.39477634E-18
   33.270000        1.39646368E-18
   33.412498        1.39946386E-18
   33.555000        1.40345977E-18
   33.697498        1.40795911E-18
   33.840000        1.41238701E-18
   33.982498        1.41618584E-18
   34.125000        1.41891316E-18
   34.267502        1.42031792E-18
   34.410000        1.42038088E-18
   34.552502        1.41931372E-18
   34.695000        1.41751243E-18
   34.837502        1.41547053E-18
   34.980000        1.41367690E-18
   35.122501        1.41251192E-18
   35.264999        1.41217091E-18
   35.407501        1.41263093E-18
   35.549999        1.41366893E-18
   35.692501        1.41492211E-18
   35.834999        1.41597439E-18
   35.977501        1.41645271E-18
   36.119999        1.41610436E-18
   36.262501        1.41485315E-18
   36.404999        1.41281777E-18
   36.547501        1.41029776E-18
   36.689999        1.40772606E-18
   36.832500        1.40559596E-18
   36.974998        1.40437473E-18
   37.117500        1.40441299E-18
   37.259998        1.40587482E-18
   37.402500        1.40869582E-18
   37.544998        1.41259112E-18
   37.687500        1.41710566E-18
   37.830002        1.42170603E-18
   37.972500        1.42588308E-18
   38.115002        1.42924950E-18
   38.257500        1.43160273E-18
   38.400002        1.43294793E-18
   38.542500        1.43347443E-18
   38.685001        1.43349976E-18
   38.827499        1.43339275E-18
   38.970001        1.43349625E-18
   39.112499        1.43405914E-18
   39.255001        1.43518556E-18
   39.397499        1.43681593E-18
   39.540001        1.43873644E-18
   39.682499        1.44062086E-18
   39.825001        1.44209913E-18
   39.967499        1.44284256E-18
   40.110001        1.44264600E-18
   40.252499        1.44148743E-18
   40.395000        1.43954935E-18
   40.537498        1.43719023E-18
   40.680000        1.43487640E-18
   40.822498        1.43308793E-18
   40.965000        1.43221887E-18
   41.107498        1.43250032E-18
   41.250000        1.43395740E-18
   41.392502        1.43640958E-18
   41.535000        1.43950799E-18
   41.677502        1.44280099E-18
   41.820000        1.44581627E-18
   41.962502        1.44814076E-18
   42.105000        1.44949557E-18
   42.247501        1.44978250E-18
   42.389999        1.44909873E-18
   42.532501        1.44771372E-18
   42.674999        1.44600921E-18
   42.817501        1.44439394E-18
   42.959999        1.44321324E-18
   43.102501        1.44267113E-18
   43.244999        1.44278921E-18
   43.387501        1.44340970E-18
   43.529999        1.44424122E-18
   43.672501        1.44493378E-18
   43.814999        1.44516632E-18
   43.957500        1.44472295E-18
   44.099998        1.44354504E-18
   44.242500        1.44174923E-18
   44.384998        1.43961159E-18
   44.527500        1.43752131E-18
   44.669998        1.43590924E-18
   44.812500        1.43516591E-18
   44.955002        1.43556182E-18
   45.097500        1.43718640E-18
   45.240002        1.43991765E-18
   45.382500        1.44343772E-18
   45.525002        1.44728835E-18
   45.667500        1.45096351E-18
   45.810001        1.45400960E-18
   45.952499        1.45611695E-18
   46.095001        1.45717636E-18
   46.237499        1.45729185E-18
   46.380001        1.45674767E-18
   46.522499        1.45594448E-18
   46.665001        1.45531448E-18
   46.807499        1.45523869E-18
   46.950001        1.45597757E-18
   47.092499        1.45762386E-18
   47.235001        1.46008876E-18
   47.377499        1.46311293E-18
   47.520000        1.46631743E-18
   47.662498        1.46927377E-18
   47.805000        1.47159308E-18
   47.947498        1.47301015E-18
   48.090000        1.47344163E-18
   48.232498        1.47300622E-18
   48.375000        1.47200006E-18
   48.517502        1.47082277E-18
   48.660000        1.46988713E-18
   48.802502        1.46952296E-18
   48.945000        1.46991163E-18
   49.087502        1.47104787E-18
   49.230000        1.47274897E-18
   49.372501        1.47469667E-18
   49.514999        1.47649961E-18
   49.657501        1.47776675E-18
   49.799999        1.47818199E-18
   49.942501        1.47756192E-18
   50.084999        1.47590104E-18
   50.227501        1.47338331E-18
   50.369999        1.47036172E-18
   50.512501        1.46730188E-18
   50.654999        1.46469409E-18
   50.797501        1.46295897E-18
   50.939999        1.46235761E-18
   51.082500        1.46294088E-18
   51.224998        1.46453920E-18
   51.367500        1.46680402E-18
   51.509998        1.46928422E-18
   51.652500        1.47151884E-18
   51.794998        1.47312554E-18
   51.937500        1.47386917E-18
   52.080002        1.47369712E-18
   52.222500        1.47274193E-18
   52.365002        1.47129489E-18
   52.507500        1.46975271E-18
   52.650002        1.46854534E-18
   52.792500        1.46805544E-18
   52.935001        1.46853986E-18
   53.077499        1.47007521E-18
   53.220001        1.47253266E-18
   53.362499        1.47560088E-18
   53.505001        1.47884529E-18
   53.647499        1.48179925E-18
   53.790001        1.48406304E-18
   53.932499        1.48538260E-18
   54.075001        1.48569951E-18
   54.217499        1.48515471E-18
   54.360001        1.48405415E-18
   54.502499        1.48280624E-18
   54.645000        1.48184464E-18
   54.787498        1.48154572E-18
   54.930000        1.48216197E-18
   55.072498        1.48376970E-18
   55.215000        1.48624979E-18
   55.357498        1.48930354E-18
   55.500000        1.49250193E-18
   55.642502        1.49536863E-18
   55.785000        1.49747753E-18
   55.927502        1.49854304E-18
   56.070000        1.49847945E-18
   56.212502        1.49742035E-18
   56.355000        1.49568431E-18
   56.497501        1.49370621E-18
   56.639999        1.49194276E-18
   56.782501        1.49078543E-18
   56.924999        1.49048506E-18
   57.067501        1.49111393E-18
   57.209999        1.49255643E-18
   57.352501        1.49453370E-18
   57.494999        1.49665552E-18
   57.637501        1.49849207E-18
   57.779999        1.49965870E-18
   57.922501        1.49989910E-18
   58.064999        1.49914709E-18
   58.207500        1.49755508E-18
   58.349998        1.49547131E-18
   58.492500        1.49337254E-18
   58.634998        1.49176275E-18
   58.777500        1.49106316E-18
   58.919998        1.49152028E-18
   59.062500        1.49315779E-18
   59.205002        1.49577716E-18
   59.347500        1.49900544E-18
   59.490002        1.50237154E-18
   59.632500        1.50539913E-18
   59.775002        1.50768980E-18
   59.917500        1.50899085E-18
   60.060001        1.50923973E-18
   60.202499        1.50857395E-18
   60.345001        1.50731198E-18
   60.487499        1.50589761E-18
   60.630001        1.50481473E-18
   60.772499        1.50448520E-18
   60.915001        1.50517279E-18
   61.057499        1.50692011E-18
   61.200001        1.50952893E-18
   61.342499        1.51260191E-18
   61.485001        1.51562897E-18
   61.627499        1.51809759E-18
   61.770000        1.51960172E-18
   61.912498        1.51991832E-18
   62.055000        1.51904885E-18
   62.197498        1.51720641E-18
   62.340000        1.51477357E-18
   62.482498        1.51222957E-18
   62.625000        1.51006660E-18
   62.767502        1.50870423E-18
   62.910000        1.50841679E-18
   63.052502        1.50927695E-18
   63.195000        1.51113831E-18
   63.337502        1.51365594E-18
   63.480000        1.51635565E-18
   63.622501        1.51872925E-18
   63.764999        1.52034308E-18
   63.907501        1.52093006E-18
   64.050003        1.52044430E-18
   64.192497        1.51906343E-18
   64.334999        1.51714427E-18
   64.477501        1.51514290E-18
   64.620003        1.51352638E-18
   64.762497        1.51268556E-18
   64.904999        1.51287126E-18
   65.047501        1.51415711E-18
   65.190002        1.51643206E-18
   65.332497        1.51942160E-18
   65.474998        1.52273446E-18
   65.617500        1.52593740E-18
   65.760002        1.52863370E-18
   65.902496        1.53054407E-18
   66.044998        1.53155975E-18
   66.187500        1.53176096E-18
   66.330002        1.53138863E-18
   66.472504        1.53077930E-18
   66.614998        1.53027865E-18
   66.757500        1.53016171E-18
   66.900002        1.53057292E-18
   67.042503        1.53150505E-18
   67.184998        1.53280755E-18
   67.327499        1.53422751E-18
   67.470001        1.53545960E-18
   67.612503        1.53620695E-18
   67.754997        1.53623559E-18
   67.897499        1.53542682E-18
   68.040001        1.53380844E-18
   68.182503        1.53156833E-18
   68.324997        1.52903426E-18
   68.467499        1.52661910E-18
   68.610001        1.52474089E-18
   68.752502        1.52373472E-18
   68.894997        1.52377701E-18
   69.037498        1.52484842E-18
   69.180000        1.52674008E-18
   69.322502        1.52910220E-18
   69.464996        1.53152397E-18
   69.607498        1.53361374E-18
   69.750000        1.53506927E-18
   69.892502        1.53572398E-18
   70.035004        1.53556506E-18
   70.177498        1.53472826E-18
   70.320000        1.53347509E-18
   70.462502        1.53214943E-18
   70.605003        1.53111907E-18
   70.747498        1.53070682E-18
   70.889999        1.53112238E-18
   71.032501        1.53240978E-18
   71.175003        1.53442696E-18
   71.317497        1.53687294E-18
   71.459999        1.53935096E-18
   71.602501        1.54145986E-18
   71.745003        1.54288323E-18
   71.887497        1.54345616E-18
   72.029999        1.54319311E-18
   72.172501        1.54227081E-18
   72.315002        1.54098413E-18
   72.457497        1.53968308E-18
   72.599998        1.53870659E-18
   72.742500        1.53833002E-18
   72.885002        1.53871683E-18
   73.027496        1.53989535E-18
   73.169998        1.54174886E-18
   73.312500        1.54403446E-18
   73.455002        1.54642594E-18
   73.597504        1.54858354E-18
   73.739998        1.55022932E-18
   73.882500        1.55121449E-18
   74.025002        1.55155767E-18
   74.167503        1.55143514E-18
   74.309998        1.55113487E-18
   74.452499        1.55097968E-18
   74.595001        1.55124313E-18
   74.737503        1.55208613E-18
   74.879997        1.55351943E-18
   75.022499        1.55540313E-18
   75.165001        1.55747604E-18
   75.307503        1.55940441E-18
   75.449997        1.56084122E-18
   75.592499        1.56149221E-18
   75.735001        1.56117643E-18
   75.877502        1.55987280E-18
   76.019997        1.55774394E-18
   76.162498        1.55512116E-18
   76.305000        1.55245113E-18
   76.447502        1.55021143E-18
   76.589996        1.54880750E-18
   76.732498        1.54848417E-18
   76.875000        1.54927144E-18
   77.017502        1.55098185E-18
   77.160004        1.55325277E-18
   77.302498        1.55562957E-18
   77.445000        1.55765647E-18
   77.587502        1.55896414E-18
   77.730003        1.55933399E-18
   77.872498        1.55873470E-18
   78.014999        1.55732736E-18
   78.157501        1.55544159E-18
   78.300003        1.55352481E-18
   78.442497        1.55206442E-18
   78.584999        1.55149625E-18
   78.727501        1.55211178E-18
   78.870003        1.55398999E-18
   79.012497        1.55697187E-18
   79.154999        1.56069036E-18
   79.297501        1.56464914E-18
   79.440002        1.56833320E-18
   79.582497        1.57131922E-18
   79.724998        1.57335822E-18
   79.867500        1.57441184E-18
   80.010002        1.57464014E-18
   80.152496        1.57434898E-18
   80.294998        1.57391677E-18
   80.437500        1.57371546E-18
   80.580002        1.57403578E-18
   80.722504        1.57502861E-18
   80.864998        1.57667025E-18
   81.007500        1.57875319E-18
   81.150002        1.58091007E-18
   81.292503        1.58268137E-18
   81.434998        1.58360699E-18
   81.577499        1.58333174E-18
   81.720001        1.58169630E-18
   81.862503        1.57878763E-18
   82.004997        1.57493172E-18
   82.147499        1.57063111E-18
   82.290001        1.56646274E-18
   82.432503        1.56296501E-18
   82.574997        1.56053888E-18
   82.717499        1.55938600E-18
   82.860001        1.55948847E-18
   83.002502        1.56063029E-18
   83.144997        1.56244347E-18
   83.287498        1.56448102E-18
   83.430000        1.56629461E-18
   83.572502        1.56751708E-18
   83.714996        1.56793243E-18
   83.857498        1.56752112E-18
   84.000000        1.56646832E-18
   84.142502        1.56512343E-18
   84.285004        1.56392278E-18
   84.427498        1.56328543E-18
   84.570000        1.56351405E-18
   84.712502        1.56472452E-18
   84.855003        1.56682070E-18
   84.997498        1.56952093E-18
   85.139999        1.57242216E-18
   85.282501        1.57508103E-18
   85.425003        1.57709677E-18
   85.567497        1.57818110E-18
   85.709999        1.57820322E-18
   85.852501        1.57721298E-18
   85.995003        1.57543320E-18
   86.137497        1.57322856E-18
   86.279999        1.57104232E-18
   86.422501        1.56931755E-18
   86.565002        1.56840672E-18
   86.707497        1.56850101E-18
   86.849998        1.56959279E-18
   86.992500        1.57148248E-18
   87.135002        1.57383209E-18
   87.277496        1.57624973E-18
   87.419998        1.57837869E-18
   87.562500        1.57996843E-18
   87.705002        1.58091627E-18
   87.847504        1.58127330E-18
   87.989998        1.58121778E-18
   88.132500        1.58101615E-18
   88.275002        1.58097014E-18
   88.417503        1.58136450E-18
   88.559998        1.58241068E-18
   88.702499        1.58419770E-18
   88.845001        1.58666177E-18
   88.987503        1.58958378E-18
   89.129997        1.59262243E-18
   89.272499        1.59538087E-18
   89.415001        1.59750052E-18
   89.557503        1.59874615E-18
   89.699997        1.59906637E-18
   89.842499        1.59860925E-18
   89.985001        1.59768529E-18
   90.127502        1.59669598E-18
   90.269997        1.59605182E-18
   90.412498        1.59608770E-18
   90.555000        1.59700659E-18
   90.697502        1.59884696E-18
   90.839996        1.60147750E-18
   90.982498        1.60461324E-18
   91.125000        1.60785413E-18
   91.267502        1.61074234E-18
   91.410004        1.61284193E-18
   91.552498        1.61381945E-18
   91.695000        1.61352073E-18
   91.837502        1.61201413E-18
   91.980003        1.60958780E-18