  -30.00000        9.8404491E-18
  -29.85750        9.8575114E-18
  -29.71500        9.8833467E-18
  -29.57250        9.9064250E-18
  -29.43000        9.9186384E-18
  -29.28750        9.9198287E-18
  -29.14500        9.9174960E-18
  -29.00250        9.9219024E-18
  -28.86000        9.9395578E-18
  -28.71750        9.9690252E-18
  -28.57500        1.0001578E-17
  -28.43250        1.0026313E-17
  -28.29000        1.0036636E-17
  -28.14750        1.0034205E-17
  -28.00500        1.0027964E-17
  -27.86250        1.0028841E-17
  -27.72000        1.0043283E-17
  -27.57750        1.0069506E-17
  -27.43500        1.0098686E-17
  -27.29250        1.0120336E-17
  -27.15000        1.0128630E-17
  -27.00750        1.0125850E-17
  -26.86500        1.0120926E-17
  -26.72250        1.0123966E-17
  -26.58000        1.0140109E-17
  -26.43750        1.0166419E-17
  -26.29500        1.0193692E-17
  -26.15250        1.0212046E-17
  -26.01000        1.0216923E-17
  -25.86750        1.0211843E-17
  -25.72500        1.0206277E-17
  -25.58250        1.0209913E-17
  -25.44000        1.0226795E-17
  -25.29750        1.0252895E-17
  -25.15500        1.0278559E-17
  -25.01250        1.0294345E-17
  -24.87000        1.0296733E-17
  -24.72750        1.0290217E-17
  -24.58500        1.0284563E-17
  -24.44250        1.0288877E-17
  -24.30000        1.0306097E-17
  -24.15750        1.0331248E-17
  -24.01500        1.0354520E-17
  -23.87250        1.0367271E-17
  -23.73000        1.0367342E-17
  -23.58750        1.0360405E-17
  -23.44500        1.0356543E-17
  -23.30250        1.0364102E-17
  -23.16000        1.0384558E-17
  -23.01750        1.0411517E-17
  -22.87500        1.0434482E-17
  -22.73250        1.0445123E-17
  -22.59000        1.0442283E-17
  -22.44750        1.0432672E-17
  -22.30500        1.0426838E-17
  -22.16250        1.0432811E-17
  -22.02000        1.0451281E-17
  -21.87750        1.0475213E-17
  -21.73500        1.0494144E-17
  -21.59250        1.0500560E-17
  -21.45000        1.0494502E-17
  -21.30750        1.0483591E-17
  -21.16500        1.0478441E-17
  -21.02250        1.0486201E-17
  -20.88000        1.0506135E-17
  -20.73750        1.0529932E-17
  -20.59500        1.0546587E-17
  -20.45250        1.0548952E-17
  -20.31000        1.0538035E-17
  -20.16750        1.0522450E-17
  -20.02500        1.0513346E-17
  -19.88250        1.0517850E-17
  -19.74000        1.0534947E-17
  -19.59750        1.0556245E-17
  -19.45500        1.0571181E-17
  -19.31250        1.0573490E-17
  -19.17000        1.0565037E-17
  -19.02750        1.0554719E-17
  -18.88500        1.0553051E-17
  -18.74250        1.0565729E-17
  -18.60000        1.0590015E-17
  -18.45750        1.0616167E-17
  -18.31500        1.0633037E-17
  -18.17250        1.0634547E-17
  -18.03000        1.0623144E-17
  -17.88750        1.0608204E-17
  -17.74500        1.0600381E-17
  -17.60250        1.0605276E-17
  -17.46000        1.0620251E-17
  -17.31750        1.0636252E-17
  -17.17500        1.0643508E-17
  -17.03250        1.0637649E-17
  -16.89000        1.0622528E-17
  -16.74750        1.0608049E-17
  -16.60500        1.0604313E-17
  -16.46250        1.0615601E-17
  -16.32000        1.0637824E-17
  -16.17750        1.0660966E-17
  -16.03500        1.0675032E-17
  -15.89250        1.0675926E-17
  -15.75000        1.0667742E-17
  -15.60750        1.0660105E-17
  -15.46500        1.0662221E-17
  -15.32250        1.0677233E-17
  -15.18000        1.0700300E-17
  -15.03750        1.0721530E-17
  -14.89500        1.0731989E-17
  -14.75250        1.0729102E-17
  -14.61000        1.0718198E-17
  -14.46750        1.0709263E-17
  -14.32500        1.0710868E-17
  -14.18250        1.0724964E-17
  -14.04000        1.0745713E-17
  -13.89750        1.0763037E-17
  -13.75500        1.0768759E-17
  -13.61250        1.0761593E-17
  -13.47000        1.0747969E-17
  -13.32750        1.0738190E-17
  -13.18500        1.0740237E-17
  -13.04250        1.0754995E-17
  -12.90000        1.0775755E-17
  -12.75750        1.0792335E-17
  -12.61500        1.0797270E-17
  -12.47250        1.0790357E-17
  -12.33000        1.0778761E-17
  -12.18750        1.0772628E-17
  -12.04500        1.0778853E-17
  -11.90250        1.0796800E-17
  -11.76000        1.0818583E-17
  -11.61750        1.0833768E-17
  -11.47500        1.0835686E-17
  -11.33250        1.0825514E-17
  -11.19000        1.0811666E-17
  -11.04750        1.0804822E-17
  -10.90500        1.0811569E-17
  -10.76250        1.0830491E-17
  -10.62000        1.0853051E-17
  -10.47750        1.0868758E-17
  -10.33500        1.0871496E-17
  -10.19250        1.0863198E-17
  -10.05000        1.0852639E-17
  -9.907500        1.0850079E-17
  -9.765000        1.0860968E-17
  -9.622500        1.0882533E-17
  -9.480000        1.0905330E-17
  -9.337500        1.0918853E-17
  -9.195000        1.0917836E-17
  -9.052500        1.0905476E-17
  -8.910000        1.0891601E-17
  -8.767500        1.0886890E-17
  -8.625000        1.0896567E-17
  -8.482500        1.0917358E-17
  -8.340000        1.0939518E-17
  -8.197500        1.0952696E-17
  -8.055000        1.0952115E-17
  -7.912500        1.0941367E-17
  -7.770000        1.0930136E-17
  -7.627500        1.0928270E-17
  -7.485000        1.0939748E-17
  -7.342500        1.0960210E-17
  -7.200000        1.0979528E-17
  -7.057500        1.0987892E-17
  -6.915000        1.0981728E-17
  -6.772500        1.0965928E-17
  -6.630000        1.0951028E-17
  -6.487500        1.0947030E-17
  -6.345000        1.0957584E-17
  -6.202500        1.0977982E-17
  -6.060000        1.0998137E-17
  -5.917500        1.1008728E-17
  -5.775000        1.1006794E-17
  -5.632500        1.0997403E-17
  -5.490000        1.0990453E-17
  -5.347500        1.0994536E-17
  -5.205000        1.1011612E-17
  -5.062500        1.1035716E-17
  -4.920000        1.1056474E-17
  -4.777500        1.1065293E-17
  -4.635000        1.1060497E-17
  -4.492500        1.1048303E-17
  -4.350000        1.1039066E-17
  -4.207500        1.1041065E-17
  -4.065000        1.1055581E-17
  -3.922500        1.1076231E-17
  -3.780000        1.1092927E-17
  -3.637500        1.1098038E-17
  -3.495000        1.1091027E-17
  -3.352500        1.1078747E-17
  -3.210000        1.1071236E-17
  -3.067500        1.1075584E-17
  -2.925000        1.1091595E-17
  -2.782500        1.1111880E-17
  -2.640000        1.1126352E-17
  -2.497500        1.1128359E-17
  -2.355000        1.1118773E-17
  -2.212500        1.1105508E-17
  -2.070000        1.1098774E-17
  -1.927500        1.1104916E-17
  -1.785000        1.1122582E-17
  -1.642500        1.1143532E-17
  -1.500000        1.1157617E-17
  -1.357500        1.1158907E-17
  -1.215000        1.1149274E-17
  -1.072500        1.1137233E-17
 -0.9300000        1.1132754E-17
 -0.7875000        1.1141180E-17
 -0.6450000        1.1159930E-17
 -0.5025000        1.1180032E-17
 -0.3600000        1.1191532E-17
 -0.2175000        1.1189572E-17
 -7.5000003E-02    1.1177399E-17
  6.7500003E-02    1.1164510E-17
  0.2100000        1.1160984E-17
  0.3525000        1.1171428E-17
  0.4950000        1.1192178E-17
  0.6375000        1.1213446E-17
  0.7800000        1.1225156E-17
  0.9225000        1.1222962E-17
   1.065000        1.1210819E-17
   1.207500        1.1198580E-17
   1.350000        1.1196034E-17
   1.492500        1.1207004E-17
   1.635000        1.1227031E-17
   1.777500        1.1246079E-17
   1.920000        1.1254609E-17
   2.062500        1.1249399E-17
   2.205000        1.1235572E-17
   2.347500        1.1223608E-17
   2.490000        1.1223125E-17
   2.632500        1.1237130E-17
   2.775000        1.1260210E-17
   2.917500        1.1281729E-17
   3.060000        1.1292124E-17
   3.202500        1.1288519E-17
   3.345000        1.1276320E-17
   3.487500        1.1265842E-17
   3.630000        1.1266020E-17
   3.772500        1.1279010E-17
   3.915000        1.1298907E-17
   4.057500        1.1315349E-17
   4.200000        1.1319813E-17
   4.342500        1.1310826E-17
   4.485000        1.1294920E-17
   4.627500        1.1282788E-17
   4.770000        1.1282947E-17
   4.912500        1.1296705E-17
   5.055000        1.1317463E-17
   5.197500        1.1334724E-17
   5.340000        1.1340405E-17
   5.482500        1.1333621E-17
   5.625000        1.1321105E-17
   5.767500        1.1313031E-17
   5.910000        1.1316796E-17
   6.052500        1.1332531E-17
   6.195000        1.1353045E-17
   6.337500        1.1368220E-17
   6.480000        1.1371174E-17
   6.622500        1.1362456E-17
   6.765000        1.1349734E-17
   6.907500        1.1343178E-17
   7.050000        1.1349324E-17
   7.192500        1.1367148E-17
   7.335000        1.1388700E-17
   7.477500        1.1403929E-17
   7.620000        1.1406738E-17
   7.762500        1.1398635E-17
   7.905000        1.1387755E-17
   8.047500        1.1383871E-17
   8.190000        1.1392424E-17
   8.332500        1.1411202E-17
   8.475000        1.1431673E-17
   8.617500        1.1444176E-17
   8.760000        1.1443800E-17
   8.902500        1.1433381E-17
   9.045000        1.1421784E-17
   9.187500        1.1418504E-17
   9.330000        1.1427845E-17
   9.472500        1.1446225E-17
   9.615000        1.1464262E-17
   9.757500        1.1472385E-17
   9.900000        1.1466618E-17
   10.04250        1.1451014E-17
   10.18500        1.1435281E-17
   10.32750        1.1428996E-17
   10.47000        1.1435923E-17
   10.61250        1.1451846E-17
   10.75500        1.1467223E-17
   10.89750        1.1473094E-17
   11.04000        1.1466627E-17
   11.18250        1.1452952E-17
   11.32500        1.1442158E-17
   11.46750        1.1443216E-17
   11.61000        1.1458511E-17
   11.75250        1.1482274E-17
   11.89500        1.1503896E-17
   12.03750        1.1514157E-17
   12.18000        1.1510648E-17
   12.32250        1.1499118E-17
   12.46500        1.1489974E-17
   12.60750        1.1491981E-17
   12.75000        1.1507005E-17
   12.89250        1.1528894E-17
   13.03500        1.1547218E-17
   13.17750        1.1553571E-17
   13.32000        1.1546662E-17
   13.46250        1.1533123E-17
   13.60500        1.1523529E-17
   13.74750        1.1526041E-17
   13.89000        1.1541469E-17
   14.03250        1.1562743E-17
   14.17500        1.1579098E-17
   14.31750        1.1582477E-17
   14.46000        1.1572311E-17
   14.60250        1.1555823E-17
   14.74500        1.1543706E-17
   14.88750        1.1543753E-17
   15.03000        1.1556295E-17
   15.17250        1.1574148E-17
   15.31500        1.1587071E-17
   15.45750        1.1588034E-17
   15.60000        1.1577494E-17
   15.74250        1.1563130E-17
   15.88500        1.1555198E-17
   16.02750        1.1560325E-17
   16.17000        1.1577499E-17
   16.31250        1.1598649E-17
   16.45500        1.1613460E-17
   16.59750        1.1615523E-17
   16.74000        1.1606100E-17
   16.88250        1.1593265E-17
   17.02500        1.1586965E-17
   17.16750        1.1592994E-17
   17.31000        1.1609532E-17
   17.45250        1.1628304E-17
   17.59500        1.1639654E-17
   17.73750        1.1638420E-17
   17.88000        1.1627066E-17
   18.02250        1.1614177E-17
   18.16500        1.1609238E-17
   18.30750        1.1616877E-17
   18.45000        1.1634072E-17
   18.59250        1.1652002E-17
   18.73500        1.1661422E-17
   18.87750        1.1658300E-17
   19.02000        1.1646291E-17
   19.16250        1.1634543E-17
   19.30500        1.1632170E-17
   19.44750        1.1642730E-17
   19.59000        1.1662060E-17
   19.73250        1.1680785E-17
   19.87500        1.1689979E-17
   20.01750        1.1686543E-17
   20.16000        1.1675063E-17
   20.30250        1.1664974E-17
   20.44500        1.1664801E-17
   20.58750        1.1676917E-17
   20.73000        1.1696050E-17
   20.87250        1.1712437E-17
   21.01500        1.1717740E-17
   21.15750        1.1710161E-17
   21.30000        1.1695623E-17
   21.44250        1.1684309E-17
   21.58500        1.1684598E-17
   21.72750        1.1698050E-17
   21.87000        1.1718482E-17
   22.01250        1.1735675E-17
   22.15500        1.1741518E-17
   22.29750        1.1734853E-17
   22.44000        1.1722144E-17
   22.58250        1.1713510E-17
   22.72500        1.1716547E-17
   22.86750        1.1731643E-17
   23.01000        1.1751642E-17
   23.15250        1.1766065E-17
   23.29500        1.1767382E-17
   23.43750        1.1755555E-17
   23.58000        1.1738135E-17
   23.72250        1.1725825E-17
   23.86500        1.1726160E-17
   24.00750        1.1739109E-17
   24.15000        1.1757189E-17
   24.29250        1.1770045E-17
   24.43500        1.1770720E-17
   24.57750        1.1759849E-17
   24.72000        1.1745269E-17
   24.86250        1.1737283E-17
   25.00500        1.1742433E-17
   25.14750        1.1759535E-17
   25.29000        1.1780363E-17
   25.43250        1.1794538E-17
   25.57500        1.1795738E-17
   25.71750        1.1785443E-17
   25.86000        1.1772023E-17
   26.00250        1.1765705E-17
   26.14500        1.1772466E-17
   26.28750        1.1790489E-17
   26.43000        1.1811331E-17
   26.57250        1.1825022E-17
   26.71500        1.1826046E-17
   26.85750        1.1816593E-17
   27.00000        1.1805125E-17
   27.14250        1.1801190E-17
   27.28500        1.1809589E-17
   27.42750        1.1827455E-17
   27.57000        1.1845983E-17
   27.71250        1.1855746E-17
   27.85500        1.1852380E-17
   27.99750        1.1839220E-17
   28.14000        1.1825284E-17
   28.28250        1.1819852E-17
   28.42500        1.1826922E-17
   28.56750        1.1842889E-17
   28.71000        1.1858819E-17
   28.85250        1.1865936E-17
   28.99500        1.1860973E-17
   29.13750        1.1848164E-17
   29.28000        1.1836650E-17
   29.42250        1.1834931E-17
   29.56500        1.1845685E-17
   29.70750        1.1864140E-17
   29.85000        1.1880966E-17
   29.99250        1.1887933E-17
   30.13500        1.1882904E-17
   30.27750        1.1871124E-17
   30.42000        1.1862027E-17
   30.56250        1.1863481E-17
   30.70500        1.1876958E-17
   30.84750        1.1896582E-17
   30.99000        1.1912615E-17
   31.13250        1.1917309E-17
   31.27500        1.1909566E-17
   31.41750        1.1895598E-17
   31.56000        1.1885170E-17
   31.70250        1.1885690E-17
   31.84500        1.1897741E-17
   31.98750        1.1914724E-17
   32.13000        1.1926891E-17
   32.27250        1.1927284E-17
   32.41500        1.1916024E-17
   32.55750        1.1900312E-17
   32.70000        1.1890136E-17
   32.84250        1.1892238E-17
   32.98500        1.1905988E-17
   33.12750        1.1923668E-17
   33.27000        1.1935015E-17
   33.41250        1.1933315E-17
   33.55500        1.1919400E-17
   33.69750        1.1901136E-17
   33.84000        1.1888717E-17
   33.98250        1.1888594E-17
   34.12500        1.1899668E-17
   34.26750        1.1914063E-17
   34.41000        1.1921987E-17
   34.55250        1.1917768E-17
   34.69500        1.1903415E-17
   34.83750        1.1887552E-17
   34.98000        1.1880352E-17
   35.12250        1.1887499E-17
   35.26500        1.1906798E-17
   35.40750        1.1929471E-17
   35.55000        1.1945359E-17
   35.69250        1.1948916E-17
   35.83500        1.1942418E-17
   35.97750        1.1934473E-17
   36.12000        1.1934746E-17
   36.26250        1.1948088E-17
   36.40500        1.1971578E-17
   36.54750        1.1996255E-17
   36.69000        1.2012465E-17
   36.83250        1.2015612E-17
   36.97500        1.2008837E-17
   37.11750        1.2001038E-17
   37.26000        1.2001437E-17
   37.40250        1.2013973E-17
   37.54500        1.2034893E-17
   37.68750        1.2054980E-17
   37.83000        1.2065063E-17
   37.97250        1.2061484E-17
   38.11500        1.2048237E-17
   38.25750        1.2034523E-17
   38.40000        1.2029204E-17
   38.54250        1.2035517E-17
   38.68500        1.2049233E-17
   38.82750        1.2061339E-17
   38.97000        1.2063590E-17
   39.11250        1.2053578E-17
   39.25500        1.2036226E-17
   39.39750        1.2020837E-17
   39.54000        1.2015487E-17
   39.68250        1.2022169E-17
   39.82500        1.2035629E-17
   39.96750        1.2046589E-17
   40.11000        1.2047398E-17
   40.25250        1.2036684E-17
   40.39500        1.2020195E-17
   40.53750        1.2007310E-17
   40.68000        1.2005350E-17
   40.82250        1.2015133E-17
   40.96500        1.2030463E-17
   41.10750        1.2041870E-17
   41.25000        1.2042337E-17
   41.39250        1.2031540E-17
   41.53500        1.2016035E-17
   41.67750        1.2005276E-17
   41.82000        1.2005881E-17
   41.96250        1.2017618E-17
   42.10500        1.2033560E-17
   42.24750        1.2044320E-17
   42.39000        1.2043812E-17
   42.53250        1.2033040E-17
   42.67500        1.2019600E-17
   42.81750        1.2013169E-17
   42.96000        1.2019688E-17
   43.10250        1.2037740E-17
   43.24500        1.2059330E-17
   43.38750        1.2074601E-17
   43.53000        1.2077680E-17
   43.67250        1.2070115E-17
   43.81500        1.2059855E-17
   43.95750        1.2056366E-17
   44.10000        1.2064837E-17
   44.24250        1.2082975E-17
   44.38500        1.2102322E-17
   44.52750        1.2113342E-17
   44.67000        1.2111191E-17
   44.81250        1.2098716E-17
   44.95500        1.2084847E-17
   45.09750        1.2079335E-17
   45.24000        1.2086971E-17
   45.38250        1.2104758E-17
   45.52500        1.2123720E-17
   45.66750        1.2134280E-17
   45.81000        1.2131961E-17
   45.95250        1.2120027E-17
   46.09500        1.2107447E-17
   46.23750        1.2103462E-17
   46.38000        1.2111981E-17
   46.52250        1.2129204E-17
   46.66500        1.2145891E-17
   46.80750        1.2152900E-17
   46.95000        1.2146686E-17
   47.09250        1.2131437E-17
   47.23500        1.2116595E-17
   47.37750        1.2111242E-17
   47.52000        1.2118720E-17
   47.66250        1.2134716E-17
   47.80500        1.2149936E-17
   47.94750        1.2155729E-17
   48.09000        1.2149303E-17
   48.23250        1.2135361E-17
   48.37500        1.2123236E-17
   48.51750        1.2121247E-17
   48.66000        1.2131690E-17
   48.80250        1.2149492E-17
   48.94500        1.2165296E-17
   49.08750        1.2171121E-17
   49.23000        1.2165159E-17
   49.37250        1.2152825E-17
   49.51500        1.2143443E-17
   49.65750        1.2144578E-17
   49.80000        1.2157455E-17
   49.94250        1.2176210E-17
   50.08500        1.2191431E-17
   50.22750        1.2195820E-17
   50.37000        1.2188561E-17
   50.51250        1.2175758E-17
   50.65500        1.2166693E-17
   50.79750        1.2168189E-17
   50.94000        1.2180487E-17
   51.08250        1.2197135E-17
   51.22500        1.2208948E-17
   51.36750        1.2209625E-17
   51.51000        1.2199598E-17
   51.65250        1.2185794E-17
   51.79500        1.2177425E-17
   51.93750        1.2180376E-17
   52.08000        1.2193585E-17
   52.22250        1.2209622E-17
   52.36500        1.2219144E-17
   52.50750        1.2216523E-17
   52.65000        1.2203258E-17
   52.79250        1.2187099E-17
   52.93500        1.2177403E-17
   53.07750        1.2179521E-17
   53.22000        1.2191626E-17
   53.36250        1.2205883E-17
   53.50500        1.2213275E-17
   53.64750        1.2209153E-17
   53.79000        1.2196146E-17
   53.93250        1.2182649E-17
   54.07500        1.2177773E-17
   54.21750        1.2185797E-17
   54.36000        1.2203482E-17
   54.50250        1.2221878E-17
   54.64500        1.2231591E-17
   54.78750        1.2228332E-17
   54.93000        1.2215442E-17
   55.07250        1.2201862E-17
   55.21500        1.2196756E-17
   55.35750        1.2204032E-17
   55.50000        1.2220039E-17
   55.64250        1.2235835E-17
   55.78500        1.2242654E-17
   55.92750        1.2237282E-17
   56.07000        1.2224092E-17
   56.21250        1.2212489E-17
   56.35500        1.2211298E-17
   56.49750        1.2223446E-17
   56.64000        1.2244134E-17
   56.78250        1.2263628E-17
   56.92500        1.2272971E-17
   57.06750        1.2269242E-17
   57.21000        1.2257201E-17
   57.35250        1.2246347E-17
   57.49500        1.2245186E-17
   57.63750        1.2256123E-17
   57.78000        1.2274068E-17
   57.92250        1.2289535E-17
   58.06500        1.2294394E-17
   58.20750        1.2286772E-17
   58.35000        1.2272179E-17
   58.49250        1.2260179E-17
   58.63500        1.2258629E-17
   58.77750        1.2268958E-17
   58.92000        1.2285322E-17
   59.06250        1.2298140E-17
   59.20500        1.2299879E-17
   59.34750        1.2289597E-17
   59.49000        1.2273540E-17
   59.63250        1.2261419E-17
   59.77500        1.2260652E-17
   59.91750        1.2272000E-17
   60.06000        1.2289232E-17
   60.20250        1.2302964E-17
   60.34500        1.2306348E-17
   60.48750        1.2299146E-17
   60.63000        1.2287755E-17
   60.77250        1.2281189E-17
   60.91500        1.2285473E-17
   61.05750        1.2299870E-17
   61.20000        1.2317242E-17
   61.34250        1.2328317E-17
   61.48500        1.2327309E-17
   61.62750        1.2315451E-17
   61.77000        1.2300339E-17
   61.91250        1.2291443E-17
   62.05500        1.2294515E-17
   62.19750        1.2308238E-17
   62.34000        1.2325148E-17
   62.48250        1.2336233E-17
   62.62500        1.2336413E-17
   62.76750        1.2327582E-17
   62.91000        1.2317348E-17
   63.05250        1.2314271E-17
   63.19500        1.2322481E-17
   63.33750        1.2338979E-17
   63.48000        1.2355288E-17
   63.62250        1.2362484E-17
   63.76500        1.2356580E-17
   63.90750        1.2340997E-17
   64.05000        1.2324615E-17
   64.19250        1.2316541E-17
   64.33500        1.2320744E-17
   64.47750        1.2333754E-17
   64.62000        1.2346861E-17
   64.76250        1.2351433E-17
   64.90500        1.2344180E-17
   65.04750        1.2329164E-17
   65.19000        1.2315340E-17
   65.33250        1.2311101E-17
   65.47500        1.2319131E-17
   65.61750        1.2334697E-17
   65.76000        1.2348430E-17
   65.90250        1.2351951E-17
   66.04500        1.2342967E-17
   66.18750        1.2326752E-17
   66.33000        1.2313107E-17
   66.47250        1.2310587E-17
   66.61500        1.2321448E-17
   66.75750        1.2340352E-17
   66.90000        1.2357573E-17
   67.04250        1.2364822E-17
   67.18500        1.2360159E-17
   67.32750        1.2349079E-17
   67.47000        1.2341104E-17
   67.61250        1.2343966E-17
   67.75500        1.2358863E-17
   67.89750        1.2379666E-17
   68.04000        1.2396546E-17
   68.18250        1.2401851E-17
   68.32500        1.2394687E-17
   68.46750        1.2381462E-17
   68.61000        1.2372049E-17
   68.75250        1.2373871E-17
   68.89500        1.2387465E-17
   69.03750        1.2406154E-17
   69.18000        1.2420042E-17
   69.32250        1.2421893E-17
   69.46500        1.2411409E-17
   69.60750        1.2395325E-17
   69.75000        1.2383307E-17
   69.89250        1.2382168E-17
   70.03500        1.2391850E-17
   70.17750        1.2405627E-17
   70.32000        1.2414348E-17
   70.46250        1.2412132E-17
   70.60500        1.2400077E-17
   70.74750        1.2385710E-17
   70.89000        1.2378529E-17
   71.03250        1.2384290E-17
   71.17500        1.2401529E-17
   71.31750        1.2422368E-17
   71.46000        1.2437135E-17
   71.60250        1.2440016E-17
   71.74500        1.2432329E-17
   71.88750        1.2421491E-17
   72.03000        1.2416337E-17
   72.17250        1.2421660E-17
   72.31500        1.2435288E-17
   72.45750        1.2449470E-17
   72.60000        1.2455705E-17
   72.74250        1.2450073E-17
   72.88500        1.2435799E-17
   73.02750        1.2421463E-17
   73.17000        1.2415926E-17
   73.31250        1.2423015E-17
   73.45500        1.2439190E-17
   73.59750        1.2455613E-17
   73.74000        1.2463372E-17
   73.88250        1.2458733E-17
   74.02500        1.2445238E-17
   74.16750        1.2431418E-17
   74.31000        1.2425503E-17
   74.45250        1.2430363E-17
   74.59500        1.2441758E-17
   74.73750        1.2450960E-17
   74.88000        1.2450171E-17
   75.02250        1.2437439E-17
   75.16500        1.2418072E-17
   75.30750        1.2401634E-17
   75.45000        1.2396317E-17
   75.59250        1.2404068E-17
   75.73500        1.2419395E-17
   75.87750        1.2432622E-17
   76.02000        1.2435643E-17
   76.16250        1.2426725E-17
   76.30500        1.2411489E-17
   76.44750        1.2399472E-17
   76.59000        1.2398347E-17
   76.73250        1.2409285E-17
   76.87500        1.2426261E-17
   77.01750        1.2439722E-17
   77.16000        1.2442409E-17
   77.30250        1.2433817E-17
   77.44500        1.2420574E-17
   77.58750        1.2412501E-17
   77.73000        1.2416688E-17
   77.87250        1.2433149E-17
   78.01500        1.2454683E-17
   78.15750        1.2471030E-17
   78.30000        1.2474859E-17
   78.44250        1.2466016E-17
   78.58500        1.2451502E-17
   78.72750        1.2441206E-17
   78.87000        1.2441975E-17
   79.01250        1.2453581E-17
   79.15500        1.2468982E-17
   79.29750        1.2478700E-17
   79.44000        1.2476665E-17
   79.58250        1.2463971E-17
   79.72500        1.2448293E-17
   79.86750        1.2439301E-17
   80.01000        1.2442844E-17
   80.15250        1.2457394E-17
   80.29500        1.2474910E-17
   80.43750        1.2485582E-17
   80.58000        1.2483629E-17
   80.72250        1.2470681E-17
   80.86500        1.2454717E-17
   81.00750        1.2445252E-17
   81.15000        1.2447661E-17
   81.29250        1.2460071E-17
   81.43500        1.2474644E-17
   81.57750        1.2482447E-17
   81.72000        1.2478929E-17
   81.86250        1.2466678E-17
   82.00500        1.2453798E-17
   82.14750        1.2448899E-17
   82.29000        1.2455757E-17
   82.43250        1.2470897E-17
   82.57500        1.2485561E-17
   82.71750        1.2490914E-17
   82.86000        1.2483318E-17
   83.00250        1.2466523E-17
   83.14500        1.2449449E-17
   83.28750        1.2440898E-17
   83.43000        1.2444408E-17
   83.57250        1.2456318E-17
   83.71500        1.2468212E-17
   83.85750        1.2472193E-17
   84.00000        1.2465805E-17
   84.14250        1.2453552E-17
   84.28500        1.2444116E-17
   84.42750        1.2444960E-17
   84.57000        1.2457604E-17
   84.71250        1.2476469E-17
   84.85500        1.2492052E-17
   84.99750        1.2496514E-17
   85.14000        1.2488350E-17
   85.28250        1.2473300E-17
   85.42500        1.2460938E-17
   85.56750        1.2458992E-17
   85.71000        1.2468786E-17
   85.85250        1.2484569E-17
   85.99500        1.2497108E-17
   86.13750        1.2499361E-17
   86.28000        1.2490797E-17
   86.42250        1.2477725E-17
   86.56500        1.2469429E-17
   86.70750        1.2472435E-17
   86.85000        1.2486398E-17
   86.99250        1.2504124E-17
   87.13500        1.2515756E-17
   87.27750        1.2514647E-17
   87.42000        1.2501374E-17
   87.56250        1.2483493E-17
   87.70500        1.2471140E-17
   87.84750        1.2471101E-17
   87.99000        1.2482897E-17
   88.13250        1.2499199E-17
   88.27500        1.2510330E-17
   88.41750        1.2510107E-17
   88.56000        1.2499535E-17
   88.70250        1.2486110E-17
   88.84500        1.2479167E-17
   88.98750        1.2484098E-17
   89.13000        1.2498931E-17
   89.27250        1.2515365E-17
   89.41500        1.2523639E-17
   89.55750        1.2518359E-17
   89.70000        1.2501761E-17
   89.84250        1.2482472E-17
   89.98500        1.2470489E-17
   90.12750        1.2471385E-17
   90.27000        1.2483192E-17
   90.41250        1.2497788E-17
   90.55500        1.2505929E-17
   90.69750        1.2502867E-17
   90.84000        1.2491176E-17
   90.98250        1.2479108E-17
   91.12500        1.2475496E-17
   91.26750        1.2484311E-17
   91.41000        1.2502161E-17
   91.55250        1.2520249E-17
   91.69500        1.2529607E-17
   91.83750        1.2526455E-17
   91.98000        1.2514442E-17
   92.12250        1.2502435E-17
   92.26500        1.2499198E-17
   92.40750        1.2508156E-17
   92.55000        1.2525394E-17
   92.69250        1.2542060E-17
   92.83500        1.2549712E-17
   92.97750        1.2545350E-17
   93.12000        1.2533112E-17
   93.26250        1.2521633E-17
   93.40500        1.2518707E-17
   93.54750        1.2526496E-17
   93.69000        1.2540223E-17
   93.83250        1.2551117E-17
   93.97500        1.2551846E-17
   94.11750        1.2541101E-17
   94.26000        1.2524549E-17
   94.40250        1.2511553E-17
   94.54500        1.2509628E-17
   94.68750        1.2519958E-17
   94.83000        1.2536710E-17
   94.97250        1.2550529E-17
   95.11500        1.2554104E-17
   95.25750        1.2546468E-17
   95.40000        1.2533403E-17
   95.54250        1.2523766E-17
   95.68500        1.2523948E-17
   95.82750        1.2533882E-17
   95.97000        1.2547025E-17
   96.11250        1.2554344E-17
   96.25500        1.2549915E-17
   96.39750        1.2534706E-17
   96.54000        1.2516238E-17
   96.68250        1.2504257E-17
   96.82500        1.2505023E-17
   96.96750        1.2517606E-17
   97.11000        1.2534446E-17
   97.25250        1.2545853E-17
   97.39500        1.2545727E-17
   97.53750        1.2535099E-17
   97.68000        1.2521352E-17
   97.82250        1.2513612E-17
   97.96500        1.2517108E-17
   98.10750        1.2529919E-17
   98.25000        1.2544095E-17
   98.39250        1.2550480E-17
   98.53500        1.2544352E-17
   98.67750        1.2528447E-17
   98.82000        1.2511520E-17
   98.96250        1.2503273E-17
   99.10500        1.2508665E-17
   99.24750        1.2524987E-17
   99.39000        1.2543482E-17