  -30.00000        9.7844703E-19
  -29.85750        9.8019982E-19
  -29.71500        9.8339822E-19
  -29.57250        9.8751437E-19
  -29.43000        9.9190670E-19
  -29.28750        9.9594883E-19
  -29.14500        9.9914960E-19
  -29.00250        1.0012397E-18
  -28.86000        1.0022159E-18
  -28.71750        1.0023273E-18
  -28.57500        1.0020217E-18
  -28.43250        1.0018475E-18
  -28.29000        1.0023454E-18
  -28.14750        1.0039345E-18
  -28.00500        1.0068208E-18
  -27.86250        1.0109463E-18
  -27.72000        1.0159928E-18
  -27.57750        1.0214392E-18
  -27.43500        1.0266649E-18
  -27.29250        1.0310778E-18
  -27.15000        1.0342390E-18
  -27.00750        1.0359520E-18
  -26.86500        1.0363035E-18
  -26.72250        1.0356387E-18
  -26.58000        1.0344932E-18
  -26.43750        1.0334793E-18
  -26.29500        1.0331687E-18
  -26.15250        1.0339827E-18
  -26.01000        1.0361163E-18
  -25.86750        1.0395029E-18
  -25.72500        1.0438280E-18
  -25.58250        1.0485901E-18
  -25.44000        1.0532008E-18
  -25.29750        1.0570982E-18
  -25.15500        1.0598661E-18
  -25.01250        1.0613211E-18
  -24.87000        1.0615511E-18
  -24.72750        1.0609003E-18
  -24.58500        1.0598941E-18
  -24.44250        1.0591274E-18
  -24.30000        1.0591379E-18
  -24.15750        1.0602945E-18
  -24.01500        1.0627258E-18
  -23.87250        1.0662970E-18
  -23.73000        1.0706447E-18
  -23.58750        1.0752513E-18
  -23.44500        1.0795487E-18
  -23.30250        1.0830285E-18
  -23.16000        1.0853444E-18
  -23.01750        1.0863788E-18
  -22.87500        1.0862693E-18
  -22.73250        1.0853864E-18
  -22.59000        1.0842592E-18
  -22.44750        1.0834684E-18
  -22.30500        1.0835239E-18
  -22.16250        1.0847555E-18
  -22.02000        1.0872402E-18
  -21.87750        1.0907870E-18
  -21.73500        1.0949809E-18
  -21.59250        1.0992707E-18
  -21.45000        1.1030897E-18
  -21.30750        1.1059738E-18
  -21.16500        1.1076527E-18
  -21.02250        1.1081043E-18
  -20.88000        1.1075573E-18
  -20.73750        1.1064456E-18
  -20.59500        1.1053247E-18
  -20.45250        1.1047634E-18
  -20.31000        1.1052309E-18
  -20.16750        1.1069988E-18
  -20.02500        1.1100824E-18
  -19.88250        1.1142283E-18
  -19.74000        1.1189635E-18
  -19.59750        1.1236913E-18
  -19.45500        1.1278188E-18
  -19.31250        1.1308847E-18
  -19.17000        1.1326569E-18
  -19.02750        1.1331862E-18
  -18.88500        1.1327933E-18
  -18.74250        1.1320013E-18
  -18.60000        1.1314303E-18
  -18.45750        1.1316702E-18
  -18.31500        1.1331667E-18
  -18.17250        1.1361294E-18
  -18.03000        1.1404879E-18
  -17.88750        1.1458957E-18
  -17.74500        1.1517872E-18
  -17.60250        1.1574756E-18
  -17.46000        1.1622821E-18
  -17.31750        1.1656643E-18
  -17.17500        1.1673248E-18
  -17.03250        1.1672745E-18
  -16.89000        1.1658326E-18
  -16.74750        1.1635624E-18
  -16.60500        1.1611583E-18
  -16.46250        1.1593086E-18
  -16.32000        1.1585606E-18
  -16.17750        1.1592224E-18
  -16.03500        1.1613135E-18
  -15.89250        1.1645733E-18
  -15.75000        1.1685221E-18
  -15.60750        1.1725593E-18
  -15.46500        1.1760799E-18
  -15.32250        1.1785916E-18
  -15.18000        1.1798061E-18
  -15.03750        1.1796960E-18
  -14.89500        1.1784997E-18
  -14.75250        1.1766685E-18
  -14.61000        1.1747742E-18
  -14.46750        1.1733856E-18
  -14.32500        1.1729428E-18
  -14.18250        1.1736611E-18
  -14.04000        1.1754839E-18
  -13.89750        1.1780953E-18
  -13.75500        1.1809906E-18
  -13.61250        1.1835846E-18
  -13.47000        1.1853360E-18
  -13.32750        1.1858594E-18
  -13.18500        1.1850049E-18
  -13.04250        1.1828917E-18
  -12.90000        1.1798913E-18
  -12.75750        1.1765643E-18
  -12.61500        1.1735603E-18
  -12.47250        1.1714990E-18
  -12.33000        1.1708552E-18
  -12.18750        1.1718649E-18
  -12.04500        1.1744774E-18
  -11.90250        1.1783649E-18
  -11.76000        1.1829868E-18
  -11.61750        1.1876983E-18
  -11.47500        1.1918818E-18
  -11.33250        1.1950673E-18
  -11.19000        1.1970189E-18
  -11.04750        1.1977700E-18
  -10.90500        1.1976020E-18
  -10.76250        1.1969752E-18
  -10.62000        1.1964267E-18
  -10.47750        1.1964603E-18
  -10.33500        1.1974412E-18
  -10.19250        1.1995254E-18
  -10.05000        1.2026219E-18
  -9.907500        1.2064057E-18
  -9.765000        1.2103767E-18
  -9.622500        1.2139570E-18
  -9.480000        1.2166051E-18
  -9.337500        1.2179288E-18
  -9.195000        1.2177662E-18
  -9.052500        1.2162225E-18
  -8.910000        1.2136436E-18
  -8.767500        1.2105452E-18
  -8.625000        1.2075039E-18
  -8.482500        1.2050421E-18
  -8.340000        1.2035304E-18
  -8.197500        1.2031224E-18
  -8.055000        1.2037404E-18
  -7.912500        1.2051032E-18
  -7.770000        1.2067904E-18
  -7.627500        1.2083347E-18
  -7.485000        1.2093171E-18
  -7.342500        1.2094574E-18
  -7.200000        1.2086766E-18
  -7.057500        1.2071211E-18
  -6.915000        1.2051366E-18
  -6.772500        1.2032022E-18
  -6.630000        1.2018272E-18
  -6.487500        1.2014405E-18
  -6.345000        1.2022935E-18
  -6.202500        1.2044035E-18
  -6.060000        1.2075493E-18
  -5.917500        1.2113180E-18
  -5.775000        1.2151919E-18
  -5.632500        1.2186561E-18
  -5.490000        1.2212994E-18
  -5.347500        1.2228913E-18
  -5.205000        1.2234244E-18
  -5.062500        1.2231099E-18
  -4.920000        1.2223354E-18
  -4.777500        1.2215876E-18
  -4.635000        1.2213535E-18
  -4.492500        1.2220184E-18
  -4.350000        1.2237770E-18
  -4.207500        1.2265821E-18
  -4.065000        1.2301407E-18
  -3.922500        1.2339636E-18
  -3.780000        1.2374636E-18
  -3.637500        1.2400718E-18
  -3.495000        1.2413613E-18
  -3.352500        1.2411329E-18
  -3.210000        1.2394589E-18
  -3.067500        1.2366702E-18
  -2.925000        1.2332907E-18
  -2.782500        1.2299397E-18
  -2.640000        1.2272179E-18
  -2.497500        1.2256002E-18
  -2.355000        1.2253547E-18
  -2.212500        1.2264965E-18
  -2.070000        1.2287906E-18
  -1.927500        1.2317993E-18
  -1.785000        1.2349722E-18
  -1.642500        1.2377601E-18
  -1.500000        1.2397297E-18
  -1.357500        1.2406581E-18
  -1.215000        1.2405785E-18
  -1.072500        1.2397736E-18
 -0.9300000        1.2387095E-18
 -0.7875000        1.2379303E-18
 -0.6450000        1.2379383E-18
 -0.5025000        1.2390844E-18
 -0.3600000        1.2414883E-18
 -0.2175000        1.2450156E-18
 -7.5000003E-02    1.2492970E-18
  6.7500003E-02    1.2537976E-18
  0.2100000        1.2579172E-18
  0.3525000        1.2611059E-18
  0.4950000        1.2629685E-18
  0.6375000        1.2633470E-18
  0.7800000        1.2623604E-18
  0.9225000        1.2603881E-18
   1.065000        1.2579990E-18
   1.207500        1.2558408E-18
   1.350000        1.2545065E-18
   1.492500        1.2544115E-18
   1.635000        1.2557111E-18
   1.777500        1.2582645E-18
   1.920000        1.2616705E-18
   2.062500        1.2653488E-18
   2.205000        1.2686580E-18
   2.347500        1.2710189E-18
   2.490000        1.2720267E-18
   2.632500        1.2715229E-18
   2.775000        1.2696291E-18
   2.917500        1.2667248E-18
   3.060000        1.2633817E-18
   3.202500        1.2602594E-18
   3.345000        1.2579855E-18
   3.487500        1.2570336E-18
   3.630000        1.2576343E-18
   3.772500        1.2597296E-18
   3.915000        1.2629916E-18
   4.057500        1.2668929E-18
   4.200000        1.2708193E-18
   4.342500        1.2741994E-18
   4.485000        1.2766111E-18
   4.627500        1.2778582E-18
   4.770000        1.2779895E-18
   4.912500        1.2772718E-18
   5.055000        1.2761197E-18
   5.197500        1.2750009E-18
   5.340000        1.2743397E-18
   5.482500        1.2744289E-18
   5.625000        1.2753677E-18
   5.767500        1.2770405E-18
   5.910000        1.2791333E-18
   6.052500        1.2811999E-18
   6.195000        1.2827559E-18
   6.337500        1.2833872E-18
   6.480000        1.2828505E-18
   6.622500        1.2811389E-18
   6.765000        1.2784961E-18
   6.907500        1.2753732E-18
   7.050000        1.2723411E-18
   7.192500        1.2699781E-18
   7.335000        1.2687579E-18
   7.477500        1.2689604E-18
   7.620000        1.2706253E-18
   7.762500        1.2735502E-18
   7.905000        1.2773341E-18
   8.047500        1.2814531E-18
   8.190000        1.2853593E-18
   8.332500        1.2885806E-18
   8.475000        1.2908107E-18
   8.617500        1.2919660E-18
   8.760000        1.2922024E-18
   8.902500        1.2918801E-18
   9.045000        1.2914844E-18
   9.187500        1.2915170E-18
   9.330000        1.2923809E-18
   9.472500        1.2942871E-18
   9.615000        1.2972048E-18
   9.757500        1.3008625E-18
   9.900000        1.3048027E-18
   10.04250        1.3084714E-18
   10.18500        1.3113281E-18
   10.32750        1.3129475E-18
   10.47000        1.3130994E-18
   10.61250        1.3117941E-18
   10.75500        1.3092838E-18
   10.89750        1.3060190E-18
   11.04000        1.3025705E-18
   11.18250        1.2995265E-18
   11.32500        1.2973797E-18
   11.46750        1.2964383E-18
   11.61000        1.2967660E-18
   11.75250        1.2981777E-18
   11.89500        1.3002878E-18
   12.03750        1.3025991E-18
   12.18000        1.3046162E-18
   12.32250        1.3059511E-18
   12.46500        1.3064010E-18
   12.60750        1.3059859E-18
   12.75000        1.3049371E-18
   12.89250        1.3036457E-18
   13.03500        1.3025833E-18
   13.17750        1.3022045E-18
   13.32000        1.3028566E-18
   13.46250        1.3047065E-18
   13.60500        1.3076953E-18
   13.74750        1.3115417E-18
   13.89000        1.3157862E-18
   14.03250        1.3198772E-18
   14.17500        1.3232800E-18
   14.31750        1.3255900E-18
   14.46000        1.3266128E-18
   14.60250        1.3264062E-18
   14.74500        1.3252622E-18
   14.88750        1.3236412E-18
   15.03000        1.3220742E-18
   15.17250        1.3210527E-18
   15.31500        1.3209364E-18
   15.45750        1.3218856E-18
   15.60000        1.3238372E-18
   15.74250        1.3265223E-18
   15.88500        1.3295125E-18
   16.02750        1.3323070E-18
   16.17000        1.3344270E-18
   16.31250        1.3355137E-18
   16.45500        1.3354089E-18
   16.59750        1.3341993E-18
   16.74000        1.3322087E-18
   16.88250        1.3299410E-18
   17.02500        1.3279792E-18
   17.16750        1.3268643E-18
   17.31000        1.3269838E-18
   17.45250        1.3284904E-18
   17.59500        1.3312748E-18
   17.73750        1.3349880E-18
   17.88000        1.3391094E-18
   18.02250        1.3430474E-18
   18.16500        1.3462434E-18
   18.30750        1.3482686E-18
   18.45000        1.3488951E-18
   18.59250        1.3481326E-18
   18.73500        1.3462278E-18
   18.87750        1.3436142E-18
   19.02000        1.3408341E-18
   19.16250        1.3384321E-18
   19.30500        1.3368472E-18
   19.44750        1.3363286E-18
   19.59000        1.3368879E-18
   19.73250        1.3383082E-18
   19.87500        1.3401993E-18
   20.01750        1.3420931E-18
   20.16000        1.3435467E-18
   20.30250        1.3442386E-18
   20.44500        1.3440321E-18
   20.58750        1.3429964E-18
   20.73000        1.3413874E-18
   20.87250        1.3395937E-18
   21.01500        1.3380564E-18
   21.15750        1.3371818E-18
   21.30000        1.3372616E-18
   21.44250        1.3384074E-18
   21.58500        1.3405288E-18
   21.72750        1.3433442E-18
   21.87000        1.3464427E-18
   22.01250        1.3493678E-18
   22.15500        1.3517230E-18
   22.29750        1.3532609E-18
   22.44000        1.3539363E-18
   22.58250        1.3539164E-18
   22.72500        1.3535416E-18
   22.86750        1.3532480E-18
   23.01000        1.3534705E-18
   23.15250        1.3545507E-18
   23.29500        1.3566630E-18
   23.43750        1.3597720E-18
   23.58000        1.3636359E-18
   23.72250        1.3678363E-18
   23.86500        1.3718540E-18
   24.00750        1.3751605E-18
   24.15000        1.3773211E-18
   24.29250        1.3780813E-18
   24.43500        1.3774283E-18
   24.57750        1.3755938E-18
   24.72000        1.3730155E-18
   24.86250        1.3702441E-18
   25.00500        1.3678334E-18
   25.14750        1.3662245E-18
   25.29000        1.3656640E-18
   25.43250        1.3661638E-18
   25.57500        1.3675130E-18
   25.71750        1.3693314E-18
   25.86000        1.3711562E-18
   26.00250        1.3725359E-18
   26.14500        1.3731249E-18
   26.28750        1.3727520E-18
   26.43000        1.3714635E-18
   26.57250        1.3695201E-18
   26.71500        1.3673596E-18
   26.85750        1.3655121E-18
   27.00000        1.3644976E-18
   27.14250        1.3647138E-18
   27.28500        1.3663471E-18
   27.42750        1.3693263E-18
   27.57000        1.3733307E-18
   27.71250        1.3778566E-18
   27.85500        1.3823180E-18
   27.99750        1.3861630E-18
   28.14000        1.3889799E-18
   28.28250        1.3905638E-18
   28.42500        1.3909463E-18
   28.56750        1.3903716E-18
   28.71000        1.3892400E-18
   28.85250        1.3880241E-18
   28.99500        1.3871736E-18
   29.13750        1.3870258E-18
   29.28000        1.3877327E-18
   29.42250        1.3892297E-18
   29.56500        1.3912390E-18
   29.70750        1.3933272E-18
   29.85000        1.3949980E-18
   29.99250        1.3958055E-18
   30.13500        1.3954584E-18
   30.27750        1.3938984E-18
   30.42000        1.3913195E-18
   30.56250        1.3881382E-18
   30.70500        1.3849127E-18
   30.84750        1.3822355E-18
   30.99000        1.3806204E-18
   31.13250        1.3804043E-18
   31.27500        1.3816897E-18
   31.41750        1.3843214E-18
   31.56000        1.3879154E-18
   31.70250        1.3919233E-18
   31.84500        1.3957328E-18
   31.98750        1.3987772E-18
   32.13000        1.4006450E-18
   32.27250        1.4011612E-18
   32.41500        1.4004252E-18
   32.55750        1.3987904E-18
   32.70000        1.3967969E-18
   32.84250        1.3950592E-18
   32.98500        1.3941441E-18
   33.12750        1.3944613E-18
   33.27000        1.3961885E-18
   33.41250        1.3992427E-18
   33.55500        1.4033026E-18
   33.69750        1.4078724E-18
   33.84000        1.4123723E-18
   33.98250        1.4162421E-18
   34.12500        1.4190367E-18
   34.26750        1.4205041E-18
   34.41000        1.4206256E-18
   34.55250        1.4196139E-18
   34.69500        1.4178667E-18
   34.83750        1.4158796E-18
   34.98000        1.4141428E-18
   35.12250        1.4130359E-18
   35.26500        1.4127505E-18
   35.40750        1.4132592E-18
   35.55000        1.4143333E-18
   35.69250        1.4156042E-18
   35.83500        1.4166534E-18
   35.97750        1.4171045E-18
   36.12000        1.4167074E-18
   36.26250        1.4153875E-18
   36.40500        1.4132693E-18
   36.54750        1.4106580E-18
   36.69000        1.4079919E-18
   36.83250        1.4057686E-18
   36.97500        1.4044583E-18
   37.11750        1.4044123E-18
   37.26000        1.4057927E-18
   37.40250        1.4085323E-18
   37.54500        1.4123427E-18
   37.68750        1.4167663E-18
   37.83000        1.4212676E-18
   37.97250        1.4253384E-18
   38.11500        1.4285942E-18
   38.25750        1.4308373E-18
   38.40000        1.4320789E-18
   38.54250        1.4325156E-18
   38.68500        1.4324699E-18
   38.82750        1.4323157E-18
   38.97000        1.4323965E-18
   39.11250        1.4329596E-18
   39.25500        1.4341065E-18
   39.39750        1.4357740E-18
   39.54000        1.4377437E-18
   39.68250        1.4396858E-18
   39.82500        1.4412291E-18
   39.96750        1.4420451E-18
   40.11000        1.4419306E-18
   40.25250        1.4408663E-18
   40.39500        1.4390382E-18
   40.53750        1.4368075E-18
   40.68000        1.4346411E-18
   40.82250        1.4330172E-18
   40.96500        1.4323263E-18
   41.10750        1.4327929E-18
   41.25000        1.4344358E-18
   41.39250        1.4370663E-18
   41.53500        1.4403288E-18
   41.67750        1.4437670E-18
   41.82000        1.4469060E-18
   41.96250        1.4493326E-18
   42.10500        1.4507685E-18
   42.24750        1.4511175E-18
   42.39000        1.4504779E-18
   42.53250        1.4491217E-18
   42.67500        1.4474306E-18
   42.81750        1.4458124E-18
   42.96000        1.4446111E-18
   43.10250        1.4440275E-18
   43.24500        1.4440806E-18
   43.38750        1.4446100E-18
   43.53000        1.4453233E-18
   43.67250        1.4458726E-18
   43.81500        1.4459400E-18
   43.95750        1.4453138E-18
   44.10000        1.4439408E-18
   44.24250        1.4419443E-18
   44.38500        1.4396061E-18
   44.52750        1.4373188E-18
   44.67000        1.4355160E-18
   44.81250        1.4345904E-18
   44.95500        1.4348138E-18
   45.09750        1.4362759E-18
   45.24000        1.4388538E-18
   45.38250        1.4422298E-18
   45.52500        1.4459462E-18
   45.66750        1.4494980E-18
   45.81000        1.4524342E-18
   45.95250        1.4544485E-18
   46.09500        1.4554365E-18
   46.23750        1.4555058E-18
   46.38000        1.4549455E-18
   46.52250        1.4541592E-18
   46.66500        1.4535799E-18
   46.80750        1.4535886E-18
   46.95000        1.4544440E-18
   47.09250        1.4562371E-18
   47.23500        1.4588741E-18
   47.37750        1.4620927E-18
   47.52000        1.4655075E-18
   47.66250        1.4686852E-18
   47.80500        1.4712323E-18
   47.94750        1.4728788E-18
   48.09000        1.4735380E-18
   48.23250        1.4733269E-18
   48.37500        1.4725404E-18
   48.51750        1.4715771E-18
   48.66000        1.4708491E-18
   48.80250        1.4706861E-18
   48.94500        1.4712656E-18
   49.08750        1.4725794E-18
   49.23000        1.4744408E-18
   49.37250        1.4765259E-18
   49.51500        1.4784378E-18
   49.65750        1.4797807E-18
   49.80000        1.4802343E-18
   49.94250        1.4796135E-18
   50.08500        1.4779125E-18
   50.22750        1.4753174E-18
   50.37000        1.4721853E-18
   50.51250        1.4689871E-18
   50.65500        1.4662198E-18
   50.79750        1.4643099E-18
   50.94000        1.4635232E-18
   51.08250        1.4639131E-18
   51.22500        1.4653094E-18
   51.36750        1.4673634E-18
   51.51000        1.4696209E-18
   51.65250        1.4716198E-18
   51.79500        1.4729783E-18
   51.93750        1.4734629E-18
   52.08000        1.4730257E-18
   52.22250        1.4718049E-18
   52.36500        1.4701011E-18
   52.50750        1.4683189E-18
   52.65000        1.4668966E-18
   52.79250        1.4662232E-18
   52.93500        1.4665591E-18
   53.07750        1.4679814E-18
   53.22000        1.4703588E-18
   53.36250        1.4733750E-18
   53.50500        1.4765898E-18
   53.64750        1.4795323E-18
   53.79000        1.4818006E-18
   53.93250        1.4831416E-18
   54.07500        1.4834989E-18
   54.21750        1.4830199E-18
   54.36000        1.4820158E-18
   54.50250        1.4809005E-18
   54.64500        1.4801104E-18
   54.78750        1.4800207E-18
   54.93000        1.4808793E-18
   55.07250        1.4827547E-18
   55.21500        1.4855170E-18
   55.35750        1.4888538E-18
   55.50000        1.4923242E-18
   55.64250        1.4954415E-18
   55.78500        1.4977738E-18
   55.92750        1.4990323E-18
   56.07000        1.4991357E-18
   56.21250        1.4982221E-18
   56.35500        1.4966170E-18
   56.49750        1.4947598E-18
   56.64000        1.4931104E-18
   56.78250        1.4920586E-18
   56.92500        1.4918519E-18
   57.06750        1.4925556E-18
   57.21000        1.4940474E-18
   57.35250        1.4960405E-18
   57.49500        1.4981404E-18
   57.63750        1.4999159E-18
   57.78000        1.5009853E-18
   57.92250        1.5010991E-18
   58.06500        1.5002002E-18
   58.20750        1.4984516E-18
   58.35000        1.4962133E-18
   58.49250        1.4939706E-18
   58.63500        1.4922329E-18
   58.77750        1.4914214E-18
   58.92000        1.4917804E-18
   59.06250        1.4933275E-18
   59.20500        1.4958582E-18
   59.34750        1.4989940E-18
   59.49000        1.5022612E-18
   59.63250        1.5051844E-18
   59.77500        1.5073682E-18
   59.91750        1.5085665E-18
   60.06000        1.5087219E-18
   60.20250        1.5079794E-18
   60.34500        1.5066620E-18
   60.48750        1.5052154E-18
   60.63000        1.5041218E-18
   60.77250        1.5037985E-18
   60.91500        1.5045035E-18
   61.05750        1.5062703E-18
   61.20000        1.5088934E-18
   61.34250        1.5119692E-18
   61.48500        1.5149829E-18
   61.62750        1.5174210E-18
   61.77000        1.5188799E-18
   61.91250        1.5191422E-18
   62.05500        1.5182134E-18
   62.19750        1.5163124E-18
   62.34000        1.5138259E-18
   62.48250        1.5112348E-18
   62.62500        1.5090302E-18
   62.76750        1.5076318E-18
   62.91000        1.5073085E-18
   63.05250        1.5081300E-18
   63.19500        1.5099459E-18
   63.33750        1.5124107E-18
   63.48000        1.5150501E-18
   63.62250        1.5173580E-18
   63.76500        1.5189052E-18
   63.90750        1.5194307E-18
   64.05000        1.5188945E-18
   64.19250        1.5174796E-18
   64.33500        1.5155476E-18
   64.47750        1.5135585E-18
   64.62000        1.5119788E-18
   64.76250        1.5111977E-18
   64.90500        1.5114635E-18
   65.04750        1.5128460E-18
   65.19000        1.5152289E-18
   65.33250        1.5183336E-18
   65.47500        1.5217646E-18
   65.61750        1.5250856E-18
   65.76000        1.5278986E-18
   65.90250        1.5299250E-18
   66.04500        1.5310582E-18
   66.18750        1.5313805E-18
   66.33000        1.5311358E-18
   66.47250        1.5306611E-18
   66.61500        1.5303025E-18
   66.75750        1.5303318E-18
   66.90000        1.5308897E-18
   67.04250        1.5319628E-18
   67.18500        1.5333942E-18
   67.32750        1.5349252E-18
   67.47000        1.5362479E-18
   67.61250        1.5370619E-18
   67.75500        1.5371350E-18
   67.89750        1.5363498E-18
   68.04000        1.5347386E-18
   68.18250        1.5324949E-18
   68.32500        1.5299514E-18
   68.46750        1.5275254E-18
   68.61000        1.5256371E-18
   68.75250        1.5246197E-18
   68.89500        1.5246458E-18
   69.03750        1.5256889E-18
   69.18000        1.5275322E-18
   69.32250        1.5298207E-18
   69.46500        1.5321397E-18
   69.60750        1.5340975E-18
   69.75000        1.5353963E-18
   69.89250        1.5358756E-18
   70.03500        1.5355316E-18
   70.17750        1.5345103E-18
   70.32000        1.5330810E-18
   70.46250        1.5315923E-18
   70.60500        1.5304156E-18
   70.74750        1.5298725E-18
   70.89000        1.5301684E-18
   71.03250        1.5313410E-18
   71.17500        1.5332431E-18
   71.31750        1.5355683E-18
   71.46000        1.5379196E-18
   71.60250        1.5398986E-18
   71.74500        1.5411952E-18
   71.88750        1.5416538E-18
   72.03000        1.5412978E-18
   72.17250        1.5403114E-18
   72.31500        1.5389942E-18
   72.45750        1.5376942E-18
   72.60000        1.5367465E-18
   72.74250        1.5364172E-18
   72.88500        1.5368599E-18
   73.02750        1.5380928E-18
   73.17000        1.5399924E-18
   73.31250        1.5423122E-18
   73.45500        1.5447281E-18
   73.59750        1.5469060E-18
   73.74000        1.5485776E-18
   73.88250        1.5496043E-18
   74.02500        1.5500113E-18
   74.16750        1.5499813E-18
   74.31000        1.5498022E-18
   74.45250        1.5497917E-18
   74.59500        1.5502147E-18
   74.73750        1.5512204E-18
   74.88000        1.5528073E-18
   75.02250        1.5548266E-18
   75.16500        1.5570106E-18
   75.30750        1.5590240E-18
   75.45000        1.5605224E-18
   75.59250        1.5612173E-18
   75.73500        1.5609340E-18
   75.87750        1.5596570E-18
   76.02000        1.5575512E-18
   76.16250        1.5549478E-18
   76.30500        1.5522897E-18
   76.44750        1.5500467E-18
   76.59000        1.5486175E-18
   76.73250        1.5482392E-18
   76.87500        1.5489385E-18
   77.01750        1.5505281E-18
   77.16000        1.5526514E-18
   77.30250        1.5548610E-18
   77.44500        1.5567135E-18
   77.58750        1.5578492E-18
   77.73000        1.5580584E-18
   77.87250        1.5573127E-18
   78.01500        1.5557752E-18
   78.15750        1.5537729E-18
   78.30000        1.5517493E-18
   78.44250        1.5501876E-18
   78.58500        1.5495206E-18
   78.72750        1.5500398E-18
   78.87000        1.5518276E-18
   79.01250        1.5547318E-18
   79.15500        1.5583926E-18
   79.29750        1.5623235E-18
   79.44000        1.5660151E-18
   79.58250        1.5690481E-18
   79.72500        1.5711720E-18
   79.86750        1.5723429E-18
   80.01000        1.5727126E-18
   80.15250        1.5725788E-18
   80.29500        1.5723116E-18
   80.43750        1.5722779E-18
   80.58000        1.5727674E-18
   80.72250        1.5739359E-18
   80.86500        1.5757654E-18
   81.00750        1.5780555E-18
   81.15000        1.5804450E-18
   81.29250        1.5824750E-18
   81.43500        1.5836823E-18
   81.57750        1.5837023E-18
   81.72000        1.5823649E-18
   81.86250        1.5797435E-18
   82.00500        1.5761520E-18
   82.14750        1.5720847E-18
   82.29000        1.5681130E-18
   82.43250        1.5647755E-18
   82.57500        1.5624783E-18
   82.71750        1.5614302E-18
   82.86000        1.5616208E-18
   83.00250        1.5628380E-18
   83.14500        1.5647160E-18
   83.28750        1.5668024E-18
   83.43000        1.5686399E-18
   83.57250        1.5698485E-18
   83.71500        1.5701998E-18
   83.85750        1.5696655E-18
   84.00000        1.5684267E-18
   84.14250        1.5668360E-18
   84.28500        1.5653389E-18
   84.42750        1.5643703E-18
   84.57000        1.5642488E-18
   84.71250        1.5651057E-18
   84.85500        1.5668558E-18
   84.99750        1.5692217E-18
   85.14000        1.5717975E-18
   85.28250        1.5741323E-18
   85.42500        1.5758155E-18
   85.56750        1.5765500E-18
   85.71000        1.5761997E-18
   85.85250        1.5748154E-18
   85.99500        1.5726291E-18
   86.13750        1.5700197E-18
   86.28000        1.5674493E-18
   86.42250        1.5653769E-18
   86.56500        1.5641697E-18
   86.70750        1.5640250E-18
   86.85000        1.5649306E-18
   86.99250        1.5666746E-18
   87.13500        1.5689003E-18
   87.27750        1.5711949E-18
   87.42000        1.5731827E-18
   87.56250        1.5746024E-18
   87.70500        1.5753509E-18
   87.84750        1.5754879E-18
   87.99000        1.5752119E-18
   88.13250        1.5748137E-18
   88.27500        1.5746226E-18
   88.41750        1.5749437E-18
   88.56000        1.5759993E-18
   88.70250        1.5778797E-18
   88.84500        1.5805106E-18
   88.98750        1.5836518E-18
   89.13000        1.5869360E-18
   89.27250        1.5899440E-18
   89.41500        1.5922987E-18
   89.55750        1.5937588E-18
   89.70000        1.5942780E-18
   89.84250        1.5940194E-18
   89.98500        1.5933151E-18
   90.12750        1.5925913E-18
   90.27000        1.5922747E-18
   90.41250        1.5927105E-18
   90.55500        1.5940979E-18
   90.69750        1.5964583E-18
   90.84000        1.5996333E-18
   90.98250        1.6033039E-18
   91.12500        1.6070374E-18
   91.26750        1.6103490E-18
   91.41000        1.6127863E-18
   91.55250        1.6140135E-18
   91.69500        1.6138874E-18
   91.83750        1.6124977E-18
   91.98000        1.6101575E-18
   92.12250        1.6073437E-18
   92.26500        1.6045963E-18
   92.40750        1.6024063E-18
   92.55000        1.6011156E-18
   92.69250        1.6008619E-18
   92.83500        1.6015655E-18
   92.97750        1.6029668E-18
   93.12000        1.6046912E-18
   93.26250        1.6063280E-18
   93.40500        1.6075112E-18
   93.54750        1.6079840E-18
   93.69000        1.6076506E-18
   93.83250        1.6065975E-18
   93.97500        1.6050848E-18
   94.11750        1.6035001E-18
   94.26000        1.6022798E-18
   94.40250        1.6018128E-18
   94.54500        1.6023480E-18
   94.68750        1.6039300E-18
   94.83000        1.6063833E-18
   94.97250        1.6093497E-18
   95.11500        1.6123681E-18
   95.25750        1.6149744E-18
   95.40000        1.6167970E-18
   95.54250        1.6176280E-18
   95.68500        1.6174574E-18
   95.82750        1.6164695E-18
   95.97000        1.6150054E-18
   96.11250        1.6135013E-18
   96.25500        1.6124060E-18
   96.39750        1.6120957E-18
   96.54000        1.6127940E-18
   96.68250        1.6145155E-18
   96.82500        1.6170517E-18
   96.96750        1.6200052E-18
   97.11000        1.6228723E-18
   97.25250        1.6251511E-18
   97.39500        1.6264530E-18
   97.53750        1.6265881E-18
   97.68000        1.6255952E-18
   97.82250        1.6237260E-18
   97.96500        1.6213799E-18
   98.10750        1.6190180E-18
   98.25000        1.6170729E-18
   98.39250        1.6158713E-18
   98.53500        1.6155769E-18
   98.67750        1.6161651E-18
   98.82000        1.6174209E-18
   98.96250        1.6189725E-18
   99.10500        1.6203539E-18
   99.24750        1.6210950E-18
   99.39000        1.6208232E-18