  -30.00000        4.8966441E-18
  -29.85750        4.9019918E-18
  -29.71500        4.9117699E-18
  -29.57250        4.9243902E-18
  -29.43000        4.9379039E-18
  -29.28750        4.9503790E-18
  -29.14500        4.9602729E-18
  -29.00250        4.9667191E-18
  -28.86000        4.9696813E-18
  -28.71750        4.9699356E-18
  -28.57500        4.9688901E-18
  -28.43250        4.9682792E-18
  -28.29000        4.9697942E-18
  -28.14750        4.9747221E-18
  -28.00500        4.9836705E-18
  -27.86250        4.9964269E-18
  -27.72000        5.0119907E-18
  -27.57750        5.0287647E-18
  -27.43500        5.0448670E-18
  -27.29250        5.0585068E-18
  -27.15000        5.0683441E-18
  -27.00750        5.0737567E-18
  -26.86500        5.0749694E-18
  -26.72250        5.0730056E-18
  -26.58000        5.0694909E-18
  -26.43750        5.0663249E-18
  -26.29500        5.0653083E-18
  -26.15250        5.0677878E-18
  -26.01000        5.0743932E-18
  -25.86750        5.0849191E-18
  -25.72500        5.0983724E-18
  -25.58250        5.1131789E-18
  -25.44000        5.1275040E-18
  -25.29750        5.1396230E-18
  -25.15500        5.1482683E-18
  -25.01250        5.1528881E-18
  -24.87000        5.1537513E-18
  -24.72750        5.1518901E-18
  -24.58500        5.1488891E-18
  -24.44250        5.1465581E-18
  -24.30000        5.1465618E-18
  -24.15750        5.1500798E-18
  -24.01500        5.1575687E-18
  -23.87250        5.1686666E-18
  -23.73000        5.1822700E-18
  -23.58750        5.1967564E-18
  -23.44500        5.2103139E-18
  -23.30250        5.2213092E-18
  -23.16000        5.2286144E-18
  -23.01750        5.2318404E-18
  -22.87500        5.2314136E-18
  -22.73250        5.2284916E-18
  -22.59000        5.2247317E-18
  -22.44750        5.2219569E-18
  -22.30500        5.2217844E-18
  -22.16250        5.2252991E-18
  -22.02000        5.2328326E-18
  -21.87750        5.2438966E-18
  -21.73500        5.2572804E-18
  -21.59250        5.2712994E-18
  -21.45000        5.2841377E-18
  -21.30750        5.2942161E-18
  -21.16500        5.3005101E-18
  -21.02250        5.3027571E-18
  -20.88000        5.3015056E-18
  -20.73750        5.2980021E-18
  -20.59500        5.2939344E-18
  -20.45250        5.2910906E-18
  -20.31000        5.2909909E-18
  -20.16750        5.2945842E-18
  -20.02500        5.3020499E-18
  -19.88250        5.3127619E-18
  -19.74000        5.3254169E-18
  -19.59750        5.3383019E-18
  -19.45500        5.3496516E-18
  -19.31250        5.3580132E-18
  -19.17000        5.3625528E-18
  -19.02750        5.3632356E-18
  -18.88500        5.3608388E-18
  -18.74250        5.3567997E-18
  -18.60000        5.3529265E-18
  -18.45750        5.3510293E-18
  -18.31500        5.3525517E-18
  -18.17250        5.3582700E-18
  -18.03000        5.3681267E-18
  -17.88750        5.3812276E-18
  -17.74500        5.3960081E-18
  -17.60250        5.4105338E-18
  -17.46000        5.4228778E-18
  -17.31750        5.4314991E-18
  -17.17500        5.4355490E-18
  -17.03250        5.4350427E-18
  -16.89000        5.4308589E-18
  -16.74750        5.4245644E-18
  -16.60500        5.4181075E-18
  -16.46250        5.4134302E-18
  -16.32000        5.4120843E-18
  -16.17750        5.4149311E-18
  -16.03500        5.4219770E-18
  -15.89250        5.4323834E-18
  -15.75000        5.4446442E-18
  -15.60750        5.4568981E-18
  -15.46500        5.4672999E-18
  -15.32250        5.4743954E-18
  -15.18000        5.4774105E-18
  -15.03750        5.4764034E-18
  -14.89500        5.4722497E-18
  -14.75250        5.4664611E-18
  -14.61000        5.4608752E-18
  -14.46750        5.4572761E-18
  -14.32500        5.4570275E-18
  -14.18250        5.4607900E-18
  -14.04000        5.4683765E-18
  -13.89750        5.4787911E-18
  -13.75500        5.4904241E-18
  -13.61250        5.5013760E-18
  -13.47000        5.5098401E-18
  -13.32750        5.5144670E-18
  -13.18500        5.5146345E-18
  -13.04250        5.5105747E-18
  -12.90000        5.5033352E-18
  -12.75750        5.4945749E-18
  -12.61500        5.4862440E-18
  -12.47250        5.4802060E-18
  -12.33000        5.4778770E-18
  -12.18750        5.4799578E-18
  -12.04500        5.4863027E-18
  -11.90250        5.4959667E-18
  -11.76000        5.5074045E-18
  -11.61750        5.5187989E-18
  -11.47500        5.5284347E-18
  -11.33250        5.5350530E-18
  -11.19000        5.5381041E-18
  -11.04750        5.5378526E-18
  -10.90500        5.5353132E-18
  -10.76250        5.5320301E-18
  -10.62000        5.5297508E-18
  -10.47750        5.5300531E-18
  -10.33500        5.5340108E-18
  -10.19250        5.5419517E-18
  -10.05000        5.5533718E-18
  -9.907500        5.5670049E-18
  -9.765000        5.5810558E-18
  -9.622500        5.5935355E-18
  -9.480000        5.6026457E-18
  -9.337500        5.6071282E-18
  -9.195000        5.6065148E-18
  -9.052500        5.6012208E-18
  -8.910000        5.5924664E-18
  -8.767500        5.5820352E-18
  -8.625000        5.5719333E-18
  -8.482500        5.5639990E-18
  -8.340000        5.5595611E-18
  -8.197500        5.5591992E-18
  -8.055000        5.5626585E-18
  -7.912500        5.5689314E-18
  -7.770000        5.5764848E-18
  -7.627500        5.5835874E-18
  -7.485000        5.5886729E-18
  -7.342500        5.5906648E-18
  -7.200000        5.5891982E-18
  -7.057500        5.5847000E-18
  -6.915000        5.5782993E-18
  -6.772500        5.5716012E-18
  -6.630000        5.5663494E-18
  -6.487500        5.5640680E-18
  -6.345000        5.5657402E-18
  -6.202500        5.5716032E-18
  -6.060000        5.5810902E-18
  -5.917500        5.5929490E-18
  -5.775000        5.6054887E-18
  -5.632500        5.6169174E-18
  -5.490000        5.6257017E-18
  -5.347500        5.6308624E-18
  -5.205000        5.6321619E-18
  -5.062500        5.6301420E-18
  -4.920000        5.6260048E-18
  -4.777500        5.6213627E-18
  -4.635000        5.6179038E-18
  -4.492500        5.6170411E-18
  -4.350000        5.6196198E-18
  -4.207500        5.6257381E-18
  -4.065000        5.6347196E-18
  -3.922500        5.6452541E-18
  -3.780000        5.6556688E-18
  -3.637500        5.6642810E-18
  -3.495000        5.6697507E-18
  -3.352500        5.6713687E-18
  -3.210000        5.6692093E-18
  -3.067500        5.6641267E-18
  -2.925000        5.6575899E-18
  -2.782500        5.6513935E-18
  -2.640000        5.6473022E-18
  -2.497500        5.6466988E-18
  -2.355000        5.6503041E-18
  -2.212500        5.6580229E-18
  -2.070000        5.6689525E-18
  -1.927500        5.6815488E-18
  -1.785000        5.6939246E-18
  -1.642500        5.7042210E-18
  -1.500000        5.7109745E-18
  -1.357500        5.7134085E-18
  -1.215000        5.7115899E-18
  -1.072500        5.7064109E-18
 -0.9300000        5.6994051E-18
 -0.7875000        5.6924365E-18
 -0.6450000        5.6873208E-18
 -0.5025000        5.6854684E-18
 -0.3600000        5.6876037E-18
 -0.2175000        5.6936297E-18
 -7.5000003E-02    5.7026535E-18
  6.7500003E-02    5.7131661E-18
  0.2100000        5.7233483E-18
  0.3525000        5.7314298E-18
  0.4950000        5.7360505E-18
  0.6375000        5.7365310E-18
  0.7800000        5.7330168E-18
  0.9225000        5.7264543E-18
   1.065000        5.7184013E-18
   1.207500        5.7107139E-18
   1.350000        5.7051714E-18
   1.492500        5.7031158E-18
   1.635000        5.7051875E-18
   1.777500        5.7111999E-18
   1.920000        5.7201918E-18
   2.062500        5.7306279E-18
   2.205000        5.7407133E-18
   2.347500        5.7487580E-18
   2.490000        5.7535114E-18
   2.632500        5.7544093E-18
   2.775000        5.7516829E-18
   2.917500        5.7463125E-18
   3.060000        5.7398290E-18
   3.202500        5.7340086E-18
   3.345000        5.7305104E-18
   3.487500        5.7305394E-18
   3.630000        5.7346000E-18
   3.772500        5.7423887E-18
   3.915000        5.7528596E-18
   4.057500        5.7644447E-18
   4.200000        5.7753750E-18
   4.342500        5.7840497E-18
   4.485000        5.7893589E-18
   4.627500        5.7909087E-18
   4.770000        5.7890905E-18
   4.912500        5.7849951E-18
   5.055000        5.7801872E-18
   5.197500        5.7763821E-18
   5.340000        5.7750979E-18
   5.482500        5.7773384E-18
   5.625000        5.7833805E-18
   5.767500        5.7927028E-18
   5.910000        5.8040753E-18
   6.052500        5.8157936E-18
   6.195000        5.8260179E-18
   6.337500        5.8331453E-18
   6.480000        5.8361381E-18
   6.622500        5.8347422E-18
   6.765000        5.8295454E-18
   6.907500        5.8218647E-18
   7.050000        5.8134895E-18
   7.192500        5.8063327E-18
   7.335000        5.8020636E-18
   7.477500        5.8017890E-18
   7.620000        5.8058542E-18
   7.762500        5.8137823E-18
   7.905000        5.8243822E-18
   8.047500        5.8359859E-18
   8.190000        5.8467802E-18
   8.332500        5.8551645E-18
   8.475000        5.8600680E-18
   8.617500        5.8611586E-18
   8.760000        5.8588992E-18
   8.902500        5.8544428E-18
   9.045000        5.8493759E-18
   9.187500        5.8453835E-18
   9.330000        5.8438846E-18
   9.472500        5.8457383E-18
   9.615000        5.8510629E-18
   9.757500        5.8592168E-18
   9.900000        5.8689300E-18
   10.04250        5.8785671E-18
   10.18500        5.8864592E-18
   10.32750        5.8912374E-18
   10.47000        5.8921183E-18
   10.61250        5.8890623E-18
   10.75500        5.8827985E-18
   10.89750        5.8746884E-18
   11.04000        5.8664613E-18
   11.18250        5.8598757E-18
   11.32500        5.8563635E-18
   11.46750        5.8567402E-18
   11.61000        5.8610461E-18
   11.75250        5.8685416E-18
   11.89500        5.8778697E-18
   12.03750        5.8873488E-18
   12.18000        5.8953233E-18
   12.32250        5.9005072E-18
   12.46500        5.9022476E-18
   12.60750        5.9006515E-18
   12.75000        5.8965640E-18
   12.89250        5.8913958E-18
   13.03500        5.8868393E-18
   13.17750        5.8845240E-18
   13.32000        5.8856833E-18
   13.46250        5.8908863E-18
   13.60500        5.8999038E-18
   13.74750        5.9117312E-18
   13.89000        5.9247730E-18
   14.03250        5.9371517E-18
   14.17500        5.9470820E-18
   14.31750        5.9532362E-18
   14.46000        5.9550101E-18
   14.60250        5.9526469E-18
   14.74500        5.9471871E-18
   14.88750        5.9402590E-18
   15.03000        5.9337528E-18
   15.17250        5.9294540E-18
   15.31500        5.9286942E-18
   15.45750        5.9321001E-18
   15.60000        5.9394748E-18
   15.74250        5.9498382E-18
   15.88500        5.9616185E-18
   16.02750        5.9729616E-18
   16.17000        5.9820986E-18
   16.31250        5.9876982E-18
   16.45500        5.9891392E-18
   16.59750        5.9866357E-18
   16.74000        5.9811937E-18
   16.88250        5.9744034E-18
   17.02500        5.9681048E-18
   17.16750        5.9640152E-18
   17.31000        5.9633787E-18
   17.45250        5.9667214E-18
   17.59500        5.9737540E-18
   17.73750        5.9834436E-18
   17.88000        5.9942206E-18
   18.02250        6.0042964E-18
   18.16500        6.0120165E-18
   18.30750        6.0161888E-18
   18.45000        6.0163179E-18
   18.59250        6.0127109E-18
   18.73500        6.0064198E-18
   18.87750        5.9990356E-18
   19.02000        5.9923660E-18
   19.16250        5.9880701E-18
   19.30500        5.9873181E-18
   19.44750        5.9905570E-18
   19.59000        5.9974230E-18
   19.73250        6.0068284E-18
   19.87500        6.0171951E-18
   20.01750        6.0267817E-18
   20.16000        6.0340414E-18
   20.30250        6.0379251E-18
   20.44500        6.0380876E-18
   20.58750        6.0349476E-18
   20.73000        6.0295982E-18
   20.87250        6.0235867E-18
   21.01500        6.0186058E-18
   21.15750        6.0161466E-18
   21.30000        6.0171947E-18
   21.44250        6.0220200E-18
   21.58500        6.0301119E-18
   21.72750        6.0402767E-18
   21.87000        6.0508799E-18
   22.01250        6.0601895E-18
   22.15500        6.0667291E-18
   22.29750        6.0695891E-18
   22.44000        6.0686056E-18
   22.58250        6.0643899E-18
   22.72500        6.0581968E-18
   22.86750        6.0516670E-18
   23.01000        6.0464988E-18
   23.15250        6.0441115E-18
   23.29500        6.0453655E-18
   23.43750        6.0503894E-18
   23.58000        6.0585520E-18
   23.72250        6.0685771E-18
   23.86500        6.0787911E-18
   24.00750        6.0874575E-18
   24.15000        6.0931278E-18
   24.29250        6.0949426E-18
   24.43500        6.0928122E-18
   24.57750        6.0874397E-18
   24.72000        6.0801779E-18
   24.86250        6.0727498E-18
   25.00500        6.0668966E-18
   25.14750        6.0640317E-18
   25.29000        6.0649627E-18
   25.43250        6.0697484E-18
   25.57500        6.0776996E-18
   25.71750        6.0875282E-18
   25.86000        6.0976074E-18
   26.00250        6.1062948E-18
   26.14500        6.1122580E-18
   26.28750        6.1147420E-18
   26.43000        6.1137238E-18
   26.57250        6.1099208E-18
   26.71500        6.1046508E-18
   26.85750        6.0995583E-18
   27.00000        6.0962707E-18
   27.14250        6.0960539E-18
   27.28500        6.0995430E-18
   27.42750        6.1066096E-18
   27.57000        6.1163881E-18
   27.71250        6.1274607E-18
   27.85500        6.1381471E-18
   27.99750        6.1468449E-18
   28.14000        6.1523469E-18
   28.28250        6.1540749E-18
   28.42500        6.1521901E-18
   28.56750        6.1475596E-18
   28.71000        6.1415844E-18
   28.85250        6.1359273E-18
   28.99500        6.1321757E-18
   29.13750        6.1315239E-18
   29.28000        6.1345166E-18
   29.42250        6.1409355E-18
   29.56500        6.1498331E-18
   29.70750        6.1597295E-18
   29.85000        6.1689194E-18
   29.99250        6.1758326E-18
   30.13500        6.1793589E-18
   30.27750        6.1790706E-18
   30.42000        6.1753082E-18
   30.56250        6.1691027E-18
   30.70500        6.1619600E-18
   30.84750        6.1555621E-18
   30.99000        6.1514345E-18
   31.13250        6.1506437E-18
   31.27500        6.1535856E-18
   31.41750        6.1598986E-18
   31.56000        6.1685278E-18
   31.70250        6.1779291E-18
   31.84500        6.1863759E-18
   31.98750        6.1923179E-18
   32.13000        6.1947072E-18
   32.27250        6.1932249E-18
   32.41500        6.1883570E-18
   32.55750        6.1813007E-18
   32.70000        6.1737188E-18
   32.84250        6.1674045E-18
   32.98500        6.1639229E-18
   33.12750        6.1642992E-18
   33.27000        6.1688289E-18
   33.41250        6.1770188E-18
   33.55500        6.1876861E-18
   33.69750        6.1991794E-18
   33.84000        6.2096916E-18
   33.98250        6.2176007E-18
   34.12500        6.2217800E-18
   34.26750        6.2218218E-18
   34.41000        6.2181181E-18
   34.55250        6.2117856E-18
   34.69500        6.2044398E-18
   34.83750        6.1978637E-18
   34.98000        6.1936430E-18
   35.12250        6.1928494E-18
   35.26500        6.1958305E-18
   35.40750        6.2021626E-18
   35.55000        6.2107578E-18
   35.69250        6.2201017E-18
   35.83500        6.2285691E-18
   35.97750        6.2347485E-18
   36.12000        6.2377177E-18
   36.26250        6.2372226E-18
   36.40500        6.2337224E-18
   36.54750        6.2283048E-18
   36.69000        6.2224703E-18
   36.83250        6.2178352E-18
   36.97500        6.2158007E-18
   37.11750        6.2172620E-18
   37.26000        6.2224107E-18
   37.40250        6.2306970E-18
   37.54500        6.2409388E-18
   37.68750        6.2515763E-18
   37.83000        6.2610004E-18
   37.97250        6.2678891E-18
   38.11500        6.2714741E-18
   38.25750        6.2716867E-18
   38.40000        6.2691560E-18
   38.54250        6.2650705E-18
   38.68500        6.2609292E-18
   38.82750        6.2582417E-18
   38.97000        6.2582161E-18
   39.11250        6.2615136E-18
   39.25500        6.2681001E-18
   39.39750        6.2772317E-18
   39.54000        6.2875909E-18
   39.68250        6.2975402E-18
   39.82500        6.3054593E-18
   39.96750        6.3100832E-18
   40.11000        6.3107747E-18
   40.25250        6.3076629E-18
   40.39500        6.3016187E-18
   40.53750        6.2940719E-18
   40.68000        6.2867174E-18
   40.82250        6.2811703E-18
   40.96500        6.2786454E-18
   41.10750        6.2797232E-18
   41.25000        6.2842433E-18
   41.39250        6.2913409E-18
   41.53500        6.2996152E-18
   41.67750        6.3074011E-18
   41.82000        6.3130962E-18
   41.96250        6.3154868E-18
   42.10500        6.3140003E-18
   42.24750        6.3088375E-18
   42.39000        6.3009528E-18
   42.53250        6.2918699E-18
   42.67500        6.2833773E-18
   42.81750        6.2771701E-18
   42.96000        6.2745074E-18
   43.10250        6.2759748E-18
   43.24500        6.2813838E-18
   43.38750        6.2898363E-18
   43.53000        6.2999238E-18
   43.67250        6.3100170E-18
   43.81500        6.3185825E-18
   43.95750        6.3244757E-18
   44.10000        6.3271508E-18
   44.24250        6.3267558E-18
   44.38500        6.3240940E-18
   44.52750        6.3204573E-18
   44.67000        6.3173595E-18
   44.81250        6.3162114E-18
   44.95500        6.3180183E-18
   45.09750        6.3231502E-18
   45.24000        6.3312524E-18
   45.38250        6.3413167E-18
   45.52500        6.3518893E-18
   45.66750        6.3613783E-18
   45.81000        6.3683812E-18
   45.95250        6.3719658E-18
   46.09500        6.3718467E-18
   46.23750        6.3684292E-18
   46.38000        6.3627179E-18
   46.52250        6.3561199E-18
   46.66500        6.3501750E-18
   46.80750        6.3462624E-18
   46.95000        6.3453385E-18
   47.09250        6.3477480E-18
   47.23500        6.3531495E-18
   47.37750        6.3605826E-18
   47.52000        6.3686608E-18
   47.66250        6.3758664E-18
   47.80500        6.3808746E-18
   47.94750        6.3828482E-18
   48.09000        6.3816174E-18
   48.23250        6.3777180E-18
   48.37500        6.3722752E-18
   48.51750        6.3667670E-18
   48.66000        6.3627192E-18
   48.80250        6.3613969E-18
   48.94500        6.3635563E-18
   49.08750        6.3692932E-18
   49.23000        6.3780146E-18
   49.37250        6.3885347E-18
   49.51500        6.3992839E-18
   49.65750        6.4085959E-18
   49.80000        6.4150214E-18
   49.94250        6.4176192E-18
   50.08500        6.4161509E-18
   50.22750        6.4111419E-18
   50.37000        6.4037837E-18
   50.51250        6.3956918E-18
   50.65500        6.3885839E-18
   50.79750        6.3839314E-18
   50.94000        6.3826757E-18
   51.08250        6.3850634E-18
   51.22500        6.3906237E-18
   51.36750        6.3982892E-18
   51.51000        6.4066222E-18
   51.65250        6.4141024E-18
   51.79500        6.4194253E-18
   51.93750        6.4217509E-18
   52.08000        6.4208741E-18
   52.22250        6.4172693E-18
   52.36500        6.4120092E-18
   52.50750        6.4065507E-18
   52.65000        6.4024416E-18
   52.79250        6.4009928E-18
   52.93500        6.4029979E-18
   53.07750        6.4085640E-18
   53.22000        6.4170902E-18
   53.36250        6.4274026E-18
   53.50500        6.4380079E-18
   53.64750        6.4474014E-18
   53.79000        6.4543654E-18
   53.93250        6.4581994E-18
   54.07500        6.4588276E-18
   54.21750        6.4567965E-18
   54.36000        6.4531457E-18
   54.50250        6.4491935E-18
   54.64500        6.4462694E-18
   54.78750        6.4454397E-18
   54.93000        6.4472777E-18
   55.07250        6.4517280E-18
   55.21500        6.4581043E-18
   55.35750        6.4652234E-18
   55.50000        6.4716597E-18
   55.64250        6.4760628E-18
   55.78500        6.4774628E-18
   55.92750        6.4754928E-18
   56.07000        6.4704748E-18
   56.21250        6.4633573E-18
   56.35500        6.4555222E-18
   56.49750        6.4485081E-18
   56.64000        6.4437163E-18
   56.78250        6.4421426E-18
   56.92500        6.4441990E-18
   57.06750        6.4496310E-18
   57.21000        6.4575637E-18
   57.35250        6.4666569E-18
   57.49500        6.4753560E-18
   57.63750        6.4821955E-18
   57.78000        6.4860981E-18
   57.92250        6.4866060E-18
   58.06500        6.4839851E-18
   58.20750        6.4791750E-18
   58.35000        6.4735874E-18
   58.49250        6.4688051E-18
   58.63500        6.4662450E-18
   58.77750        6.4668629E-18
   58.92000        6.4709694E-18
   59.06250        6.4781766E-18
   59.20500        6.4874866E-18
   59.34750        6.4974901E-18
   59.49000        6.5066350E-18
   59.63250        6.5135159E-18
   59.77500        6.5171410E-18
   59.91750        6.5171273E-18
   60.06000        6.5137872E-18
   60.20250        6.5080850E-18
   60.34500        6.5014601E-18
   60.48750        6.4955396E-18
   60.63000        6.4918057E-18
   60.77250        6.4912825E-18
   60.91500        6.4943215E-18
   61.05750        6.5005378E-18
   61.20000        6.5089010E-18
   61.34250        6.5179719E-18
   61.48500        6.5262048E-18
   61.62750        6.5322680E-18
   61.77000        6.5353009E-18
   61.91250        6.5350743E-18
   62.05500        6.5320265E-18
   62.19750        6.5271796E-18
   62.34000        6.5219419E-18
   62.48250        6.5178408E-18
   62.62500        6.5162187E-18
   62.76750        6.5179524E-18
   62.91000        6.5232501E-18
   63.05250        6.5315852E-18
   63.19500        6.5417831E-18
   63.33750        6.5522511E-18
   63.48000        6.5613091E-18
   63.62250        6.5675432E-18
   63.76500        6.5700892E-18
   63.90750        6.5688046E-18
   64.05000        6.5642733E-18
   64.19250        6.5576691E-18
   64.33500        6.5505107E-18
   64.47750        6.5443573E-18
   64.62000        6.5405121E-18
   64.76250        6.5397822E-18
   64.90500        6.5423220E-18
   65.04750        6.5476052E-18
   65.19000        6.5545188E-18
   65.33250        6.5615792E-18
   65.47500        6.5672396E-18
   65.61750        6.5702195E-18
   65.76000        6.5697935E-18
   65.90250        6.5659653E-18
   66.04500        6.5594852E-18
   66.18750        6.5516948E-18
   66.33000        6.5442489E-18
   66.47250        6.5387668E-18
   66.61500        6.5365053E-18
   66.75750        6.5381183E-18
   66.90000        6.5435404E-18
   67.04250        6.5520162E-18
   67.18500        6.5622447E-18
   67.32750        6.5726270E-18
   67.47000        6.5815573E-18
   67.61250        6.5877169E-18
   67.75500        6.5903274E-18
   67.89750        6.5893067E-18
   68.04000        6.5852945E-18
   68.18250        6.5795286E-18
   68.32500        6.5735944E-18
   68.46750        6.5690883E-18
   68.61000        6.5672789E-18
   68.75250        6.5688414E-18
   68.89500        6.5737317E-18
   69.03750        6.5812127E-18
   69.18000        6.5900363E-18
   69.32250        6.5987117E-18
   69.46500        6.6058123E-18
   69.60750        6.6102493E-18
   69.75000        6.6114710E-18
   69.89250        6.6095610E-18
   70.03500        6.6052179E-18
   70.17750        6.5996299E-18
   70.32000        6.5942528E-18
   70.46250        6.5905264E-18
   70.60500        6.5895834E-18
   70.74750        6.5920045E-18
   70.89000        6.5976836E-18
   71.03250        6.6058396E-18
   71.17500        6.6151797E-18
   71.31750        6.6241761E-18
   71.46000        6.6313912E-18
   71.60250        6.6357760E-18
   71.74500        6.6368675E-18
   71.88750        6.6348587E-18
   72.03000        6.6305338E-18
   72.17250        6.6250971E-18
   72.31500        6.6199293E-18
   72.45750        6.6163294E-18
   72.60000        6.6152715E-18
   72.74250        6.6172183E-18
   72.88500        6.6220242E-18
   73.02750        6.6289477E-18
   73.17000        6.6367893E-18
   73.31250        6.6441314E-18
   73.45500        6.6496359E-18
   73.59750        6.6523366E-18
   73.74000        6.6518581E-18
   73.88250        6.6484919E-18
   74.02500        6.6431313E-18
   74.16750        6.6370648E-18
   74.31000        6.6316960E-18
   74.45250        6.6282537E-18
   74.59500        6.6275535E-18
   74.73750        6.6298505E-18
   74.88000        6.6348070E-18
   75.02250        6.6415638E-18
   75.16500        6.6489042E-18
   75.30750        6.6554783E-18
   75.45000        6.6600637E-18
   75.59250        6.6618124E-18
   75.73500        6.6604401E-18
   75.87750        6.6563100E-18
   76.02000        6.6503803E-18
   76.16250        6.6440173E-18
   76.30500        6.6387063E-18
   76.44750        6.6357355E-18
   76.59000        6.6359200E-18
   76.73250        6.6394409E-18
   76.87500        6.6458234E-18
   77.01750        6.6540576E-18
   77.16000        6.6628145E-18
   77.30250        6.6707178E-18
   77.44500        6.6765982E-18
   77.58750        6.6797109E-18
   77.73000        6.6798673E-18
   77.87250        6.6774688E-18
   78.01500        6.6734417E-18
   78.15750        6.6690663E-18
   78.30000        6.6657287E-18
   78.44250        6.6646314E-18
   78.58500        6.6665335E-18
   78.72750        6.6715727E-18
   78.87000        6.6792229E-18
   79.01250        6.6884062E-18
   79.15500        6.6977294E-18
   79.29750        6.7057841E-18
   79.44000        6.7114453E-18
   79.58250        6.7140898E-18
   79.72500        6.7137010E-18
   79.86750        6.7108472E-18
   80.01000        6.7065529E-18
   80.15250        6.7020948E-18
   80.29500        6.6987568E-18
   80.43750        6.6975900E-18
   80.58000        6.6992051E-18
   80.72250        6.7036400E-18
   80.86500        6.7103294E-18
   81.00750        6.7182054E-18
   81.15000        6.7259028E-18
   81.29250        6.7320471E-18
   81.43500        6.7355539E-18
   81.57750        6.7358661E-18
   81.72000        6.7330699E-18
   81.86250        6.7278640E-18
   82.00500        6.7213954E-18
   82.14750        6.7150009E-18
   82.29000        6.7099324E-18
   82.43250        6.7071113E-18
   82.57500        6.7069665E-18
   82.71750        6.7093649E-18
   82.86000        6.7136464E-18
   83.00250        6.7187526E-18
   83.14500        6.7234241E-18
   83.28750        6.7264462E-18
   83.43000        6.7269036E-18
   83.57250        6.7243869E-18
   83.71500        6.7191058E-18
   83.85750        6.7118721E-18
   84.00000        6.7039452E-18
   84.14250        6.6967641E-18
   84.28500        6.6916426E-18
   84.42750        6.6894911E-18
   84.57000        6.6906359E-18
   84.71250        6.6947697E-18
   84.85500        6.7010373E-18
   84.99750        6.7082214E-18
   85.14000        6.7149819E-18
   85.28250        6.7201063E-18
   85.42500        6.7227227E-18
   85.56750        6.7224596E-18
   85.71000        6.7195165E-18
   85.85250        6.7146378E-18
   85.99500        6.7089836E-18
   86.13750        6.7039076E-18
   86.28000        6.7006783E-18
   86.42250        6.7002043E-18
   86.56500        6.7028281E-18
   86.70750        6.7082478E-18
   86.85000        6.7155775E-18
   86.99250        6.7235486E-18
   87.13500        6.7307839E-18
   87.27750        6.7360841E-18
   87.42000        6.7386616E-18
   87.56250        6.7382745E-18
   87.70500        6.7352528E-18
   87.84750        6.7304216E-18
   87.99000        6.7249428E-18
   88.13250        6.7201063E-18
   88.27500        6.7170982E-18
   88.41750        6.7167802E-18
   88.56000        6.7195140E-18
   88.70250        6.7250793E-18
   88.84500        6.7327051E-18
   88.98750        6.7412259E-18
   89.13000        6.7493335E-18
   89.27250        6.7558699E-18
   89.41500        6.7600839E-18
   89.55750        6.7617929E-18
   89.70000        6.7614091E-18
   89.84250        6.7598283E-18
   89.98500        6.7582224E-18
   90.12750        6.7577827E-18
   90.27000        6.7594788E-18
   90.41250        6.7638687E-18
   90.55500        6.7709849E-18
   90.69750        6.7803205E-18
   90.84000        6.7908985E-18
   90.98250        6.8014392E-18
   91.12500        6.8105870E-18
   91.26750        6.8171763E-18
   91.41000        6.8204739E-18
   91.55250        6.8203523E-18
   91.69500        6.8173323E-18
   91.83750        6.8124850E-18
   91.98000        6.8072055E-18
   92.12250        6.8029195E-18
   92.26500        6.8007791E-18
   92.40750        6.8014421E-18
   92.55000        6.8049593E-18
   92.69250        6.8107959E-18
   92.83500        6.8179622E-18
   92.97750        6.8252236E-18
   93.12000        6.8313431E-18
   93.26250        6.8353193E-18
   93.40500        6.8365820E-18
   93.54750        6.8351158E-18
   93.69000        6.8314812E-18
   93.83250        6.8267261E-18
   93.97500        6.8221804E-18
   94.11750        6.8191794E-18
   94.26000        6.8187691E-18
   94.40250        6.8214649E-18
   94.54500        6.8271232E-18
   94.68750        6.8349711E-18
   94.83000        6.8437677E-18
   94.97250        6.8520681E-18
   95.11500        6.8585159E-18
   95.25750        6.8621014E-18
   95.40000        6.8623375E-18
   95.54250        6.8593257E-18
   95.68500        6.8537216E-18
   95.82750        6.8466016E-18
   95.97000        6.8392703E-18
   96.11250        6.8330156E-18
   96.25500        6.8288681E-18
   96.39750        6.8273953E-18
   96.54000        6.8285790E-18
   96.68250        6.8318187E-18
   96.82500        6.8360592E-18
   96.96750        6.8400322E-18
   97.11000        6.8425476E-18
   97.25250        6.8427648E-18
   97.39500        6.8403767E-18
   97.53750        6.8356655E-18
   97.68000        6.8294244E-18
   97.82250        6.8227726E-18
   97.96500        6.8169245E-18
   98.10750        6.8129470E-18
   98.25000        6.8115676E-18
   98.39250        6.8130413E-18
   98.53500        6.8170973E-18
   98.67750        6.8229803E-18
   98.82000        6.8295712E-18
   98.96250        6.8355877E-18
   99.10500        6.8398303E-18
   99.24750        6.8414293E-18
   99.39000        6.8400384E-18